
                                 *****************
                                 * O   R   C   A *
                                 *****************

                                            #,                                       
                                            ###                                      
                                            ####                                     
                                            #####                                    
                                            ######                                   
                                           ########,                                 
                                     ,,################,,,,,                         
                               ,,#################################,,                 
                          ,,##########################################,,             
                       ,#########################################, ''#####,          
                    ,#############################################,,   '####,        
                  ,##################################################,,,,####,       
                ,###########''''           ''''###############################       
              ,#####''   ,,,,##########,,,,          '''####'''          '####       
            ,##' ,,,,###########################,,,                        '##       
           ' ,,###''''                  '''############,,,                           
         ,,##''                                '''############,,,,        ,,,,,,###''
      ,#''                                            '''#######################'''  
     '                                                          ''''####''''         
             ,#######,   #######,   ,#######,      ##                                
            ,#'     '#,  ##    ##  ,#'     '#,    #''#        ,####,   ,####,        
            ##       ##  ##   ,#'  ##            #'  '#       #'       #'  '#        
            ##       ##  #######   ##           ,######,      #####,   #    #        
            '#,     ,#'  ##    ##  '#,     ,#' ,#      #,     #,   #   #,  ,#        
             '#######'   ##     ##  '#######'  #'      '#     '####' # '####'        



                #########################################################
                #                        -***-                          #
                #          Department of theory and spectroscopy        #
                #                                                       #
                #                      Frank Neese                      #
                #                                                       #
                #     Directorship, Architecture, Infrastructure        #
                #                    SHARK, DRIVERS                     #
                #        Core code/Algorithms in most modules           #
                #                                                       #
                #        Max Planck Institute fuer Kohlenforschung      #
                #                Kaiser Wilhelm Platz 1                 #
                #                 D-45470 Muelheim/Ruhr                 #
                #                      Germany                          #
                #                                                       #
                #                  All rights reserved                  #
                #                        -***-                          #
                #########################################################


                         Program Version 6.0.1  -  RELEASE   -


 With contributions from (in alphabetic order):
[Max-Planck-Institut fuer Kohlenforschung]                               
  Daniel Aravena         : Magnetic Suceptibility                        
  Michael Atanasov       : Ab Initio Ligand Field Theory (pilot matlab implementation)
  Alexander A. Auer      : GIAO ZORA, VPT2 properties, NMR spectrum      
  Ute Becker             : All parallelization in ORCA, NUMFREQ, NUMCALC 
  Giovanni Bistoni       : ED, misc. LED, open-shell LED, HFLD           
  Martin Brehm           : Molecular dynamics                            
  Dmytro Bykov           : pre 5.0 version of the SCF Hessian            
  Marcos Casanova-Páez   : Triplet and SCS-CIS(D). UHF-(DLPNO)-IP/EA/STEOM-CCSD. UHF-CVS-IP/STEOM-CCSD   
  Vijay G. Chilkuri      : MRCI spin determinant printing, contributions to CSF-ICE 
  Pauline Colinet        : FMM embedding                                 
  Dipayan Datta          : RHF DLPNO-CCSD density                        
  Achintya Kumar Dutta   : EOM-CC, STEOM-CC                              
  Nicolas Foglia         : Exact transition moments, OPA infrastructure, MCD improvements    
  Dmitry Ganyushin       : Spin-Orbit,Spin-Spin,Magnetic field MRCI      
  Miquel Garcia-Rates    : C-PCM and meta-GGA Hessian, CCSD/C-PCM, Gaussian charge scheme 
  Tiago L. C. Gouveia    : GS-ROHF, GS-ROCIS                             
  Yang Guo               : DLPNO-NEVPT2, F12-NEVPT2, CIM, IAO-localization        
  Andreas Hansen         : Spin unrestricted coupled pair/coupled cluster methods 
  Ingolf Harden          : AUTO-CI MPn and infrastructure                
  Benjamin Helmich-Paris : MC-RPA, TRAH-(SCF,CASSCF), AVAS, COSX integrals, SCF dyn. polar. 
  Lee Huntington         : MR-EOM, pCC                                   
  Robert Izsak           : Overlap fitted RIJCOSX, COSX-SCS-MP3, EOM     
  Riya Kayal             : Wick's Theorem for AUTO-CI, AUTO-CI UHF-CCSDT 
  Emily Kempfer          : AUTO-CI, RHF CISDT and CCSDT                  
  Christian Kollmar      : KDIIS, OOCD, Brueckner-CCSD(T), CCSD density, CASPT2, CASPT2-K, improved NEVPT2 
  Axel Koslowski         : Symmetry handling                             
  Simone Kossmann        : meta-GGA functionals, TD-DFT gradient, OOMP2, (MP2 Hessian; deprecated post 5.0) 
  Lucas Lang             : DCDCAS                                        
  Marvin Lechner         : AUTO-CI (C++ implementation), FIC-MRCC        
  Spencer Leger          : CASSCF response                               
  Dagmar Lenk            : GEPOL surface, SMD, ORCA-2-JSON               
  Dimitrios Liakos       : Extrapolation schemes; Compound Job, initial MDCI parallelization 
  Dimitrios Manganas     : Further ROCIS development; embedding schemes. LFT, Crystal Embedding 
  Dimitrios Pantazis     : SARC Basis sets                               
  Anastasios Papadopoulos: AUTO-CI, single reference methods and gradients 
  Taras Petrenko         : pre 6.0 DFT Hessian and TD-DFT gradient, (ASA, deprecated), ECA, 1-Electron XAS/XES, NRVS 
  Peter Pinski           : DLPNO-MP2, DLPNO-MP2 Gradient                 
  Christoph Reimann      : Effective Core Potentials                     
  Marius Retegan         : Local ZFS, SOC                                
  Christoph Riplinger    : Optimizer, TS searches, QM/MM, DLPNO-CCSD(T), (RO)-DLPNO pert. Triples 
  Michael Roemelt        : Original ROCIS implementation                 
  Masaaki Saitow         : Open-shell DLPNO-CCSD energy and density      
  Barbara Sandhoefer     : DKH picture change effects                    
  Kantharuban Sivalingam : CASSCF convergence/infrastructure, NEVPT2 and variants, FIC-MRCI 
  Bernardo de Souza      : ESD, SOC TD-DFT                               
  Georgi L. Stoychev     : AutoAux, RI-MP2 NMR, DLPNO-MP2 response, X2C  
  Van Anh Tran           : RI-MP2 g-tensors                              
  Willem Van den Heuvel  : Paramagnetic NMR                              
  Zikuan Wang            : NOTCH, Electric field optimization            
  Frank Wennmohs         : Technical directorship and infrastructure     
  Hang Xu                : AUTO-CI-Response properties                   
                                                                         
[FACCTs GmbH]                                                            
  Markus Bursch, Miquel Garcia-Rates, Christoph Riplinger, Bernardo de Souza, Georgi L. Stoychev 
                                                                 
  APM, Basis sets (HGBS, AHGBS, def-TZVP (Ac-Lr), def2-XVPD (La-Lu)), CI-OPT, improved COSX, DLPNO-Multilevel,           
  DOCKER, DRACO, updates on ESD, GOAT, IRC, LR-CPCM, MBIS, meta-GGA TD-DFT gradient, ML-optimized integration grids, 
  MM, NACMEs, nearIR, NEB, NEB-TS, NL-DFT gradient (VV10), 2- and 3-layer-ONIOM, interface openCOSMO-RS, QMMM,   
  Crystal-QMMM, SF, symmetry and pop. for TD-DFT, r2SCAN hybrids, SOLVATOR                                   
                                                                         
[Other institutions]                                                     
  V. Asgeirsson          : NEB                                           
  Christoph Bannwarth    : sTDA-DFT, sTD-DFT, PBEh-3c, B97-3c, D3        
  Sebastian Ehlert       : rSCAN, r2SCAN, r2SCAN-3c, D4, dhf basis sets  
  Marvin Friede          : D4 for Fr, Ra, Ac-Lr                          
  Lars Goerigk           : TD-DFT with DH, B97 family of functionals     
  Stefan Grimme          : VdW corrections, initial TS optimization, DFT functionals, gCP, sTDA/sTD-DF 
  Waldemar Hujo          : DFT-NL                                        
  H. Jonsson             : NEB                                           
  Holger Kruse           : gCP                                           
  Marcel Mueller         : wB97X-3c, vDZP basis set                      
  Hagen Neugebauer       : wr2SCAN                                       
  Tobias Risthaus        : range-separated hybrid DFT                    
  Lukas Wittmann         : regularized MP2, r2SCAN double-hybrids, wr2SCAN        
                                                                         
We gratefully acknowledge several colleagues who have allowed us to      
interface, adapt or use parts of their codes:                            
  Ed Valeev, F. Pavosevic, A. Kumar             : LibInt (2-el integral package), F12 methods 
  Garnet Chan, S. Sharma, J. Yang, R. Olivares  : DMRG                   
  Ulf Ekstrom                                   : XCFun DFT Library      
  Mihaly Kallay                                 : mrcc  (arbitrary order and MRCC methods)
  Frank Weinhold                                : gennbo (NPA and NBO analysis)           
  Simon Mueller                                 : openCOSMO-RS                            
  Christopher J. Cramer and Donald G. Truhlar   : smd solvation model                     
  S Lehtola, MJT Oliveira, MAL Marques          : LibXC Library                           
  Liviu Ungur et al                             : ANISO software                          


 Your calculation uses the libint2 library for the computation of 2-el integrals
 For citations please refer to: http://libint.valeyev.net

 Your ORCA version has been built with support for libXC version: 6.2.2
 For citations please refer to: https://libxc.gitlab.io

 This ORCA versions uses:
   CBLAS   interface :  Fast vector & matrix operations
   LAPACKE interface :  Fast linear algebra routines
   SCALAPACK package :  Parallel linear algebra routines
   Shared memory     :  Shared parallel matrices


NOTE: MaxCore=100000 MB was set to SCF,MP2,MDCI,CIPSI,MRCI and CIS
      => If you want to overwrite this, your respective input block should be placed after the MaxCore statement
================================================================================

----- Orbital basis set information -----
Your calculation utilizes the basis: DKH-def2-TZVP
   Exponents from def2-TZVP [F. Weigend and R. Ahlrichs, Phys. Chem. Chem. Phys. 7, 3297 (2005)],
   recontracted for DKH2 by D. A. Pantazis.

The basis set includes element-specific modifications.

Your calculation utilizes the basis: old-DKH-TZVP 
   as implemented in previous versions of ORCA 


                    <<< All basis sets will be decontracted >>>

================================================================================
                                        WARNINGS
                       Please study these warnings very carefully!
================================================================================


WARNING: Nuclear properties are sensitive to picture change effects!
  ===> : To get the full correction, set %rel PictureChange = 2

================================================================================
                                       INPUT FILE
================================================================================
NAME = ch2cl2_rks_def2tzvpp_efg.inp
|  1> ! RKS NORI TPSS DKH2 DKH-def2-TZVP Decontract VERYTIGHTSCF SlowConv
|  2> 
|  3> %MaxCore 100000
|  4> 
|  5> %basis newgto Cl "old-DKH-TZVP" end
|  6> end
|  7> 
|  8> %method
|  9>   SpecialGridAtoms 17
| 10>   SpecialGridIntAcc 7
| 11> end
| 12> 
| 13> * xyz 0 1
| 14>   C          -0.00000000001621     -0.80142236709582      0.00000072163835
| 15>   H           0.00000000002945     -1.41063135299497     -0.89396614965566
| 16>   H           0.00000000002903     -1.41062470375924      0.89397212084555
| 17>   Cl          1.46614804313191      0.17816692189874     -0.00000108141425
| 18>   Cl         -1.46614804317418      0.17816692195128     -0.00000108141399
| 19> *
| 20> 
| 21> %eprnmr nuclei = all {fgrad}
| 22> end
| 23> 
| 24> %rel PictureChange true
| 25> endd                         ****END OF INPUT****
================================================================================

                       ****************************
                       * Single Point Calculation *
                       ****************************

---------------------------------
CARTESIAN COORDINATES (ANGSTROEM)
---------------------------------
  C     -0.000000   -0.801422    0.000001
  H      0.000000   -1.410631   -0.893966
  H      0.000000   -1.410625    0.893972
  Cl     1.466148    0.178167   -0.000001
  Cl    -1.466148    0.178167   -0.000001

----------------------------
CARTESIAN COORDINATES (A.U.)
----------------------------
  NO LB      ZA    FRAG     MASS         X           Y           Z
   0 C     6.0000    0    12.011   -0.000000   -1.514469    0.000001
   1 H     1.0000    0     1.008    0.000000   -2.665707   -1.689351
   2 H     1.0000    0     1.008    0.000000   -2.665694    1.689362
   3 Cl   17.0000    0    35.453    2.770618    0.336687   -0.000002
   4 Cl   17.0000    0    35.453   -2.770618    0.336687   -0.000002

--------------------------------
INTERNAL COORDINATES (ANGSTROEM)
--------------------------------
 C      0   0   0     0.000000000000     0.00000000     0.00000000
 H      1   0   0     1.081809759372     0.00000000     0.00000000
 H      1   2   0     1.081809756656   111.45414258     0.00000000
 Cl     1   2   3     1.763288195260   108.23101684   118.90417913
 Cl     1   2   3     1.763288195297   108.23101684   241.09582086

---------------------------
INTERNAL COORDINATES (A.U.)
---------------------------
 C      0   0   0     0.000000000000     0.00000000     0.00000000
 H      1   0   0     2.044324174215     0.00000000     0.00000000
 H      1   2   0     2.044324169084   111.45414258     0.00000000
 Cl     1   2   3     3.332131784218   108.23101684   118.90417913
 Cl     1   2   3     3.332131784288   108.23101684   241.09582086

---------------------
BASIS SET INFORMATION
---------------------
There are 3 groups of distinct atoms

 Group   1 Type C   : 11s6p2d1f contracted to 11s6p2d1f pattern {11111111111/111111/11/1}
 Group   2 Type H   : 5s1p contracted to 5s1p pattern {11111/1}
 Group   3 Type Cl  : 14s9p1d contracted to 14s9p1d pattern {11111111111111/111111111/1}

Atom   0C    basis set group =>   1
Atom   1H    basis set group =>   2
Atom   2H    basis set group =>   2
Atom   3Cl   basis set group =>   3
Atom   4Cl   basis set group =>   3
------------------------------------------------------------------------------
                             ORCA STARTUP CALCULATIONS
------------------------------------------------------------------------------
------------------------------------------------------------------------------
                   ___                                                        
                  /   \      - P O W E R E D   B Y -                         
                 /     \                                                     
                 |  |  |   _    _      __       _____    __    __             
                 |  |  |  | |  | |    /  \     |  _  \  |  |  /  |          
                  \  \/   | |  | |   /    \    | | | |  |  | /  /          
                 / \  \   | |__| |  /  /\  \   | |_| |  |  |/  /          
                |  |  |   |  __  | /  /__\  \  |    /   |      \           
                |  |  |   | |  | | |   __   |  |    \   |  |\   \          
                \     /   | |  | | |  |  |  |  | |\  \  |  | \   \       
                 \___/    |_|  |_| |__|  |__|  |_| \__\ |__|  \__/        
                                                                              
                      - O R C A' S   B I G   F R I E N D -                    
                                      &                                       
                       - I N T E G R A L  F E E D E R -                       
                                                                              
 v1 FN, 2020, v2 2021, v3 2022-2024                                           
------------------------------------------------------------------------------


----------------------
SHARK INTEGRAL PACKAGE
----------------------

Number of atoms                             ...      5
Number of basis functions                   ...    154
Number of shells                            ...     80
Maximum angular momentum                    ...      3
Integral batch strategy                     ... SHARK/LIBINT Hybrid
RI-J (if used) integral strategy            ... SPLIT-RIJ (Revised 2003 algorithm where possible)
Printlevel                                  ...      1
Contraction scheme used                     ... SEGMENTED contraction
Prescreening option                         ... SCHWARTZ
   Thresh                                   ... 1.000e-12
   Tcut                                     ... 1.000e-14
   Tpresel                                  ... 1.000e-14 
Coulomb Range Separation                    ... NOT USED
Exchange Range Separation                   ... NOT USED
Multipole approximations                    ... NOT USED
Finite Nucleus Model                        ... NOT USED
CABS basis                                  ... NOT available
Auxiliary Coulomb fitting basis             ... NOT available
Auxiliary J/K fitting basis                 ... NOT available
Auxiliary Correlation fitting basis         ... NOT available
Auxiliary 'external' fitting basis          ... NOT available

Checking pre-screening integrals            ... done (  0.0 sec) Dimension = 80
Check shell pair data                       ... done (  0.0 sec)
Shell pair information
Shell pair cut-off parameter TPreSel        ...   1.0e-14
Total number of shell pairs                 ...      3240
Shell pairs after pre-screening             ...      2464
Total number of primitive shell pairs       ...      3240
Primitive shell pairs kept                  ...      2464
          la=0 lb=0:    821 shell pairs
          la=1 lb=0:    958 shell pairs
          la=1 lb=1:    295 shell pairs
          la=2 lb=0:    196 shell pairs
          la=2 lb=1:    104 shell pairs
          la=2 lb=2:     10 shell pairs
          la=3 lb=0:     49 shell pairs
          la=3 lb=1:     26 shell pairs
          la=3 lb=2:      4 shell pairs
          la=3 lb=3:      1 shell pairs

Calculating one electron integrals          ... done (  0.0 sec)
Calculating Nuclear repulsion               ... done (  0.0 sec) ENN=    134.923768344310 Eh

Diagonalization of the overlap matrix:
Smallest eigenvalue                        ... 6.551e-05
Time for diagonalization                   ...    0.001 sec
Threshold for overlap eigenvalues          ... 1.000e-07
Number of eigenvalues below threshold      ... 0
Time for construction of square roots      ...    0.000 sec
Total time needed                          ...    0.002 sec

-------------------
DFT GRID GENERATION
-------------------

General Integration Accuracy     IntAcc      ... 4.388
Radial Grid Type                 RadialGrid  ... OptM3 with GC (2021)
Angular Grid (max. ang.)         AngularGrid ... 4 (Lebedev-302)
Angular grid pruning method      GridPruning ... 4 (adaptive)
Weight generation scheme         WeightScheme... mBecke (2022)
Basis function cutoff            BFCut       ... 1.0000e-12
Integration weight cutoff        WCut        ... 1.0000e-14
Partially contracted basis set               ... off
Rotationally invariant grid construction     ... off
Angular grids for H and He will be reduced by one unit
Core-polarized basis detected: some atoms will have their core
                               angular grid increased.
Steep s-basis detected: some atoms will have their radial
                        grid points doubled.

SpecialGrid => Setting IntAcc for atom type =  17 to   7.0000
SpecialGrid => Setting IntAcc for atom type =  17 to   7.0000
Total number of grid points                  ...    70224
Total number of batches                      ...     1099
Average number of points per batch           ...       63
Average number of grid points per atom       ...    14045
Initializing property integral containers    ... done (  0.0 sec)

SHARK setup successfully completed in   1.2 seconds

Maximum memory used throughout the entire STARTUP-calculation: 30.1 MB
------------------------------------------------------------------------------
                          ORCA RELATIVISTIC HAMILTONIAN
------------------------------------------------------------------------------

Relativistic Method            ... DKH
Order of DKH treatment         ...   2
Treatment of potential         ... V(e,N)
Eps parameter for DKH          ...   0.00000000010000
Nucleus model                  ... Point Nucleus
Speed of light used            ... 137.03598950000000


            ************************************************
            *        DOUGLAS-KROLL-HESS HAMILTONIAN        *
            *   Programmed by FN according to literature   *
            *        procedures. Special thanks to         *
            *       B.A. Hess, M. Reiher and A. Wolf       *
            *     University Erlangen-Nuernberg/Bonn       *
            ************************************************

Uncontracting the basis (first version)        ... done
Number of contracted basis functions           ...  154
Number of uncontracted basis functions         ...  154
Initializing the DKH file                      ... done
Calculating the relativistic integrals         ... done
Storing DKH matrices                           ... done
Computing the DKH transformation               ... done
Storing the transformation variables           ... done
Transforming V and pVp to p**2 space           ... done
First transformation of V and pVp              ... done
Second transformation of Veff                  ... done
Adding kinetic energy                          ... done
Back transformation of Veff to r-space         ... done
Recovering DKH matrices                        ... done
Recontracting the H-matrix (first version)     ... done
Computing the DKH correction to the H-matrix   ... done
Reading the original H-matrix                  ... done
Adding DKH correction to the H-matrix          ... done
Storing the new modified H-matrix              ... done

Maximum memory used throughout the entire REL-calculation: 13.7 MB
-------------------------------------------------------------------------------
                                 ORCA GUESS
                   Start orbitals & Density for SCF / CASSCF
-------------------------------------------------------------------------------

------------
SCF SETTINGS
------------
Hamiltonian:
 Density Functional     Method          .... DFT(GTOs)
 Exchange Functional    Exchange        .... TPSS
 Correlation Functional Correlation     .... TPSS
 LDA part of GGA corr.  LDAOpt          .... PW91-LDA
 Gradients option       PostSCFGGA      .... off
   NL short-range parameter             ....  5.000000

Relativistic Settings:
 Scalar relativistic method             .... Douglas-Kroll-Hess
 Order of DKH procedure    Order        ....    2
 Mode of DKH-treatment                  .... V=V(e,N)
 Speed of light used       Velit        ....       137.035989
 Cutoff-constant           Eps          ....            1e-10 


General Settings:
 Integral files         IntName         .... ch2cl2_rks_def2tzvpp_efg
 Hartree-Fock type      HFTyp           .... RHF
 Total Charge           Charge          ....    0
 Multiplicity           Mult            ....    1
 Number of Electrons    NEL             ....   42
 Basis Dimension        Dim             ....  154
 Nuclear Repulsion      ENuc            ....    134.9237683443 Eh

Convergence Acceleration:
 AO-DIIS                CNVDIIS         .... on
   Start iteration      DIISMaxIt       ....     0
   Startup error        DIISStart       ....  0.200000
   # of expansion vecs  DIISMaxEq       ....     5
   Bias factor          DIISBfac        ....   1.050
   Max. coefficient     DIISMaxC        ....  10.000
 MO-DIIS                CNVKDIIS        .... off
 Trust-Rad. Augm. Hess. CNVTRAH         .... auto
   Auto Start mean grad. ratio tolernc. ....  1.125000
   Auto Start start iteration           ....    50
   Auto Start num. interpolation iter.  ....    10
   Max. Number of Micro iterations      ....    24
   Max. Number of Macro iterations      .... Maxiter - #DIIS iter
   Number of Davidson start vectors     ....     2
   Converg. threshold    (grad. norm)   ....   2.000e-06
   Grad. Scal. Fac. for Micro threshold ....   0.100
   Minimum threshold for Micro iter.    ....   1.000e-02
   NR start threshold (gradient norm)   ....   1.000e-04
   Initial trust radius                 ....   0.400
   Minimum AH scaling param. (alpha)    ....   1.000
   Maximum AH scaling param. (alpha)    .... 1000.000
   Quad. conv. algorithm                .... NR
   White noise on init. David. guess    .... on
   Maximum white noise                  ....   0.010
   Pseudo random numbers                .... off
   Inactive MOs                         .... canonical
   Orbital update algorithm             .... Taylor
   Preconditioner                       .... Diag
   Full preconditioner red. dimension   ....   250
 SOSCF                  CNVSOSCF        .... on
   Start iteration      SOSCFMaxIt      ....   150
   Startup grad/error   SOSCFStart      ....  0.001000
   Hessian update       SOSCFHessUp     .... L-BFGS
 Level Shifting         CNVShift        .... on
   Level shift para.    LevelShift      ....    0.2500
   Turn off err/grad.   ShiftErr        ....    0.0000
 Zerner damping         CNVZerner       .... off
 Static damping         CNVDamp         .... on
   Fraction old density DampFac         ....    0.8500
   Max. Damping (<1)    DampMax         ....    0.9800
   Min. Damping (>=0)   DampMin         ....    0.0000
   Turn off err/grad.   DampErr         ....    0.0300

SCF Procedure:
 Maximum # iterations   MaxIter         ....   125
 SCF integral mode      SCFMode         .... Direct
   Integral package                     .... SHARK and LIBINT hybrid scheme
 Reset frequency        DirectResetFreq ....    20
 Integral Threshold     Thresh          ....  1.000e-12 Eh
 Primitive CutOff       TCut            ....  1.000e-14 Eh

Convergence Tolerance:
 Convergence Check Mode ConvCheckMode   .... Total+1el-Energy
 Convergence forced     ConvForced      .... 0
 Energy Change          TolE            ....  1.000e-09 Eh
 1-El. energy change                    ....  1.000e-06 Eh
 Orbital Gradient       TolG            ....  2.000e-06
 Orbital Rotation angle TolX            ....  2.000e-06
 DIIS Error             TolErr          ....  1.000e-08

------------------------------
INITIAL GUESS: MODEL POTENTIAL
------------------------------
Loading DKH relativistic densities                 ... done
Calculating cut-offs                               ... done
Initializing the effective Hamiltonian             ... done
Setting up the integral package (SHARK)            ... done
Starting the Coulomb interaction                   ... done (   0.0 sec)
Making the grid                                    ... done (   0.1 sec)
Mapping shells                                     ... done
Starting the XC term evaluation                    ... done (   0.0 sec)
  promolecular density results
     # of electrons  =     41.998976573
     EX              =    -60.785226230
     EC              =     -1.589841579
     EX+EC           =    -62.375067809
Transforming the Hamiltonian                       ... done (   0.0 sec)
Diagonalizing the Hamiltonian                      ... done (   0.0 sec)
Back transforming the eigenvectors                 ... done (   0.0 sec)
Now organizing SCF variables                       ... done
                      ------------------
                      INITIAL GUESS DONE (   0.1 sec)
                      ------------------
             **** ENERGY FILE WAS UPDATED (ch2cl2_rks_def2tzvpp_efg.en.tmp) ****
Finished Guess after   0.1 sec
Maximum memory used throughout the entire GUESS-calculation: 10.2 MB

-------------------------------------------------------------------------------------------
                                      ORCA LEAN-SCF
                              memory conserving SCF solver
-------------------------------------------------------------------------------------------

----------------------------------------D-I-I-S--------------------------------------------
Iteration    Energy (Eh)           Delta-E    RMSDP     MaxDP     DIISErr   Damp  Time(sec)
-------------------------------------------------------------------------------------------
               ***  Starting incremental Fock matrix formation  ***
    1    -962.6312246067089973     0.00e+00  3.25e-04  1.19e-02  9.35e-01  0.850   1.0
    2    -962.6342718739557540    -3.05e-03  3.20e-04  1.14e-02  7.96e-01  0.850   0.8
                               ***Turning on AO-DIIS***
    3    -962.6364738144039848    -2.20e-03  2.07e-04  6.89e-03  6.78e-01  0.850   0.8
    4    -962.6378463591585160    -1.37e-03  1.59e-04  4.96e-03  5.76e-01  0.850   0.8
    5    -962.6389370670980270    -1.09e-03  1.34e-04  4.21e-03  4.90e-01  0.850   0.9
    6    -962.6399281616887720    -9.91e-04  1.21e-04  3.93e-03  4.17e-01  0.850   0.8
    7    -962.6408002586184693    -8.72e-04  1.07e-04  3.60e-03  3.54e-01  0.850   0.8
    8    -962.6415128973170567    -7.13e-04  9.04e-05  3.09e-03  3.01e-01  0.850   0.8
    9    -962.6420798818545563    -5.67e-04  7.52e-05  2.52e-03  2.56e-01  0.850   0.8
   10    -962.6425425060607495    -4.63e-04  6.26e-05  2.05e-03  2.18e-01  0.850   0.8
   11    -962.6429327077624976    -3.90e-04  5.31e-05  1.73e-03  1.85e-01  0.850   0.8
   12    -962.6432621374807468    -3.29e-04  4.54e-05  1.49e-03  1.57e-01  0.850   0.8
   13    -962.6435373248224323    -2.75e-04  3.87e-05  1.29e-03  1.34e-01  0.850   0.8
   14    -962.6437665960244203    -2.29e-04  3.28e-05  1.09e-03  1.14e-01  0.850   0.8
   15    -962.6439586508066668    -1.92e-04  2.77e-05  9.13e-04  9.66e-02  0.850   0.8
   16    -962.6441206112559712    -1.62e-04  2.34e-05  7.66e-04  8.21e-02  0.850   0.8
   17    -962.6442574272549564    -1.37e-04  1.99e-05  6.50e-04  6.98e-02  0.850   0.8
   18    -962.6443728841896927    -1.15e-04  1.69e-05  5.56e-04  5.93e-02  0.850   0.8
   19    -962.6444703198541220    -9.74e-05  1.43e-05  4.72e-04  5.04e-02  0.850   0.8
   20    -962.6445526698956883    -8.24e-05  1.21e-05  3.98e-04  4.29e-02  0.850   0.8
               *** Restarting incremental Fock matrix formation ***
                             ****Resetting DIIS****
   21    -962.6446223871658958    -6.97e-05  1.25e-05  4.38e-04  3.65e-02  0.850   1.0
   22    -962.6446817616309772    -5.94e-05  9.59e-06  3.24e-04  3.10e-02  0.850   0.8
   23    -962.6447318170088465    -5.01e-05  7.11e-06  2.20e-04  2.64e-02  0.850   0.8
   24    -962.6447740642094004    -4.22e-05  3.83e-05  1.14e-03  2.25e-02  0.000   0.7
                              *** Initializing SOSCF ***
---------------------------------------S-O-S-C-F--------------------------------------
Iteration    Energy (Eh)           Delta-E    RMSDP     MaxDP     MaxGrad    Time(sec)
--------------------------------------------------------------------------------------
   25    -962.6450124921456108    -2.38e-04  5.12e-06  1.65e-04  2.11e-04     0.8
               *** Restarting incremental Fock matrix formation ***
   26    -962.6450124958199694    -3.67e-09  7.58e-06  1.96e-04  1.01e-04     0.9
   27    -962.6450122350521497     2.61e-07  5.46e-06  1.16e-04  2.16e-04     0.8
   28    -962.6450125875270487    -3.52e-07  7.26e-07  2.37e-05  4.81e-06     0.7
   29    -962.6450125875588810    -3.18e-11  3.55e-07  1.20e-05  5.19e-06     0.7
                 **** Energy Check signals convergence ****

               *****************************************************
               *                     SUCCESS                       *
               *           SCF CONVERGED AFTER  29 CYCLES          *
               *****************************************************

             **** ENERGY FILE WAS UPDATED (ch2cl2_rks_def2tzvpp_efg.en.tmp) ****

----------------
TOTAL SCF ENERGY
----------------

Total Energy       :       -962.64501258755888 Eh          -26194.90252 eV

Components:
Nuclear Repulsion  :        134.92376834430971 Eh            3671.46239 eV
Electronic Energy  :      -1097.56878093186856 Eh          -29866.36491 eV
One Electron Energy:      -1595.74835894644912 Eh          -43422.52041 eV
Two Electron Energy:        498.17957801458050 Eh           13556.15550 eV

Virial components:
Potential Energy   :      -1941.47957867470723 Eh          -52830.34518 eV
Kinetic Energy     :        978.83456608714846 Eh           26635.44266 eV
Virial Ratio       :          1.98346037822887

DFT components:
N(Alpha)           :       21.000388005325 electrons
N(Beta)            :       21.000388005325 electrons
N(Total)           :       42.000776010651 electrons
E(X)               :      -61.432874040285 Eh       
E(C)               :       -1.597228768181 Eh       
E(XC)              :      -63.030102808466 Eh       

---------------
SCF CONVERGENCE
---------------

  Last Energy change         ...    3.1832e-11  Tolerance :   1.0000e-09
  Last MAX-Density change    ...    1.1995e-05  Tolerance :   1.0000e-08
  Last RMS-Density change    ...    3.5491e-07  Tolerance :   1.0000e-09
  Last DIIS Error            ...    2.1085e-04  Tolerance :   1.0000e-08
  Last Orbital Gradient      ...    5.1947e-06  Tolerance :   2.0000e-06
  Last Orbital Rotation      ...    4.1215e-06  Tolerance :   2.0000e-06


----------------
ORBITAL ENERGIES
----------------

  NO   OCC          E(Eh)            E(eV) 
   0   2.0000    -101.336829     -2757.5153 
   1   2.0000    -101.336828     -2757.5153 
   2   2.0000     -10.112269      -275.1688 
   3   2.0000      -9.311802      -253.3870 
   4   2.0000      -9.311801      -253.3870 
   5   2.0000      -7.031758      -191.3439 
   6   2.0000      -7.031757      -191.3438 
   7   2.0000      -7.020127      -191.0274 
   8   2.0000      -7.020127      -191.0274 
   9   2.0000      -7.019413      -191.0080 
  10   2.0000      -7.019413      -191.0079 
  11   2.0000      -0.851566       -23.1723 
  12   2.0000      -0.775939       -21.1144 
  13   2.0000      -0.620805       -16.8930 
  14   2.0000      -0.460067       -12.5191 
  15   2.0000      -0.427814       -11.6414 
  16   2.0000      -0.413155       -11.2425 
  17   2.0000      -0.297176        -8.0866 
  18   2.0000      -0.292352        -7.9553 
  19   2.0000      -0.276245        -7.5170 
  20   2.0000      -0.270914        -7.3720 
  21   0.0000      -0.029194        -0.7944 
  22   0.0000       0.008158         0.2220 
  23   0.0000       0.039188         1.0664 
  24   0.0000       0.068598         1.8667 
  25   0.0000       0.160399         4.3647 
  26   0.0000       0.164727         4.4824 
  27   0.0000       0.223907         6.0928 
  28   0.0000       0.225187         6.1276 
  29   0.0000       0.290098         7.8940 
  30   0.0000       0.325638         8.8611 
  31   0.0000       0.333631         9.0786 
*Only the first 10 virtual orbitals were printed.

                    ********************************
                    * MULLIKEN POPULATION ANALYSIS *
                    ********************************

-----------------------
MULLIKEN ATOMIC CHARGES
-----------------------
   0 C :   -0.395681
   1 H :    0.210809
   2 H :    0.210809
   3 Cl:   -0.012969
   4 Cl:   -0.012969
Sum of atomic charges:    0.0000000

--------------------------------
MULLIKEN REDUCED ORBITAL CHARGES
--------------------------------
  0 C s       :     3.269944  s :     3.269944
      pz      :     1.193684  p :     2.948511
      px      :     0.794987
      py      :     0.959840
      dz2     :     0.017108  d :     0.167981
      dxz     :     0.036606
      dyz     :     0.031604
      dx2y2   :     0.047692
      dxy     :     0.034971
      f0      :     0.000881  f :     0.009245
      f+1     :     0.000791
      f-1     :     0.001798
      f+2     :     0.000433
      f-2     :     0.001267
      f+3     :     0.002427
      f-3     :     0.001647

  1 H s       :     0.772553  s :     0.772553
      pz      :     0.008313  p :     0.016639
      px      :     0.003402
      py      :     0.004924

  2 H s       :     0.772552  s :     0.772552
      pz      :     0.008313  p :     0.016639
      px      :     0.003402
      py      :     0.004924

  3 Cls       :     5.929239  s :     5.929239
      pz      :     3.947086  p :    11.053707
      px      :     3.403961
      py      :     3.702659
      dz2     :     0.004443  d :     0.030023
      dxz     :     0.004147
      dyz     :     0.002606
      dx2y2   :     0.006596
      dxy     :     0.012231

  4 Cls       :     5.929239  s :     5.929239
      pz      :     3.947086  p :    11.053707
      px      :     3.403961
      py      :     3.702659
      dz2     :     0.004443  d :     0.030023
      dxz     :     0.004147
      dyz     :     0.002606
      dx2y2   :     0.006596
      dxy     :     0.012231



                     *******************************
                     * LOEWDIN POPULATION ANALYSIS *
                     *******************************

----------------------
LOEWDIN ATOMIC CHARGES
----------------------
   0 C :   -0.907938
   1 H :    0.093882
   2 H :    0.093882
   3 Cl:    0.360087
   4 Cl:    0.360087

-------------------------------
LOEWDIN REDUCED ORBITAL CHARGES
-------------------------------
  0 C s       :     3.028836  s :     3.028836
      pz      :     1.193054  p :     3.299359
      px      :     1.027626
      py      :     1.078679
      dz2     :     0.066570  d :     0.535301
      dxz     :     0.083699
      dyz     :     0.096079
      dx2y2   :     0.134468
      dxy     :     0.154486
      f0      :     0.004279  f :     0.044441
      f+1     :     0.005835
      f-1     :     0.003269
      f+2     :     0.003506
      f-2     :     0.005598
      f+3     :     0.011056
      f-3     :     0.010896

  1 H s       :     0.841656  s :     0.841656
      pz      :     0.032701  p :     0.064462
      px      :     0.010284
      py      :     0.021477

  2 H s       :     0.841656  s :     0.841656
      pz      :     0.032701  p :     0.064462
      px      :     0.010284
      py      :     0.021477

  3 Cls       :     5.608128  s :     5.608128
      pz      :     3.892428  p :    10.997023
      px      :     3.424383
      py      :     3.680211
      dz2     :     0.005440  d :     0.034762
      dxz     :     0.004683
      dyz     :     0.002805
      dx2y2   :     0.007263
      dxy     :     0.014572

  4 Cls       :     5.608128  s :     5.608128
      pz      :     3.892428  p :    10.997023
      px      :     3.424383
      py      :     3.680211
      dz2     :     0.005440  d :     0.034762
      dxz     :     0.004683
      dyz     :     0.002805
      dx2y2   :     0.007263
      dxy     :     0.014572



                      *****************************
                      * MAYER POPULATION ANALYSIS *
                      *****************************

  NA   - Mulliken gross atomic population
  ZA   - Total nuclear charge
  QA   - Mulliken gross atomic charge
  VA   - Mayer's total valence
  BVA  - Mayer's bonded valence
  FA   - Mayer's free valence

  ATOM       NA         ZA         QA         VA         BVA        FA
  0 C      6.3957     6.0000    -0.3957     4.1277     4.1277    -0.0000
  1 H      0.7892     1.0000     0.2108     0.9328     0.9328    -0.0000
  2 H      0.7892     1.0000     0.2108     0.9328     0.9328    -0.0000
  3 Cl    17.0130    17.0000    -0.0130     1.1499     1.1499    -0.0000
  4 Cl    17.0130    17.0000    -0.0130     1.1499     1.1499     0.0000

  Mayer bond orders larger than 0.100000
B(  0-C ,  1-H ) :   0.9422 B(  0-C ,  2-H ) :   0.9422 B(  0-C ,  3-Cl) :   1.1216 
B(  0-C ,  4-Cl) :   1.1216 

-------
TIMINGS
-------

Total SCF time: 0 days 0 hours 0 min 23 sec 

Total time                  ....      23.518 sec
Sum of individual times     ....      23.507 sec  (100.0%)

SCF preparation             ....       0.016 sec  (  0.1%)
Fock matrix formation       ....      23.379 sec  ( 99.4%)
  Startup                   ....       0.004 sec  (  0.0% of F)
  Coulomb formation         ....       8.438 sec  ( 36.1% of F)
  XC integration            ....      14.899 sec  ( 63.7% of F)
    XC Preparation          ....       0.000 sec  (  0.0% of XC)
    Basis function eval.    ....       2.662 sec  ( 17.9% of XC)
    Density eval.           ....       2.760 sec  ( 18.5% of XC)
    XC-Functional eval.     ....       0.857 sec  (  5.8% of XC)
    XC-Potential eval.      ....       8.176 sec  ( 54.9% of XC)
Diagonalization             ....       0.000 sec  (  0.0%)
Density matrix formation    ....       0.018 sec  (  0.1%)
Total Energy calculation    ....       0.005 sec  (  0.0%)
Population analysis         ....       0.002 sec  (  0.0%)
Orbital Transformation      ....       0.004 sec  (  0.0%)
Orbital Orthonormalization  ....       0.000 sec  (  0.0%)
DIIS solution               ....       0.076 sec  (  0.3%)
SOSCF solution              ....       0.006 sec  (  0.0%)
Finished LeanSCF after  23.5 sec

Maximum memory used throughout the entire LEANSCF-calculation: 12.7 MB

------------------------------------------------------------------------------
                         ORCA PROPERTY INTEGRAL CALCULATIONS
------------------------------------------------------------------------------

GBWName                                   ... ch2cl2_rks_def2tzvpp_efg.gbw
Number of atoms                           ...      5
Number of basis functions                 ...    154
Max core memory                           ... 100000 MB

Dipole integrals                          ... YES(DKH)
Quadrupole integrals                      ...  NO
Linear momentum integrals                 ...  NO
Angular momentum integrals                ...  NO
Higher moments length integrals           ...  NO
Higher moments velocity integrals         ...  NO
Kinetic energy integrals                  ...  NO
GIAO right hand sides                     ...  NO
GIAO dipole derivative integrals          ...  NO
SOC integrals                             ...  NO
EPR diamagnetic integrals (GIAO)          ...  NO
EPR gauge integrals                       ...  NO
Field gradient integrals                  ... YES(DKH) (   5 nuclei)
Spin-dipole/Fermi contact integrals       ...  NO (   0 nuclei)
Contact density integrals                 ...  NO (   0 nuclei)
Nucleus-orbit integrals                   ...  NO (   0 nuclei)
Geometric perturbations                   ...  NO (   5 nuclei)

DKH transformation order                  ... First
Note: picture-change corrections are only included
      for the integrals annotated with "YES(DKH)"!

Choice of electric origin   ... Center of mass
Position of electric origin ... ( -0.0000,  0.0036, -0.0000) 
Choice of magnetic origin   ... GIAO
Position of magnetic origin ... (  0.0000,  0.0000,  0.0000) 

Calculating integrals                     ... Electric Dipole (Length)     done (  0.0 sec)
Calculating integrals                     ... SD/FC/EFG integrals          done (  0.0 sec)

Property integrals calculated in   0.0 sec

Maximum memory used throughout the entire PROPINT-calculation: 14.2 MB

-------------------------   --------------------
FINAL SINGLE POINT ENERGY      -962.645012587559
-------------------------   --------------------


------------------------------------------------------------------------------
                              ORCA PROPERTY CALCULATIONS
------------------------------------------------------------------------------

GBWName                                 ... ch2cl2_rks_def2tzvpp_efg.gbw
Number of atoms                         ...      5
Number of basis functions               ...    154
Max core memory                         ... 100000 MB

Electric properties:
Dipole moment                           ... YES(DKH)
Quadrupole moment                       ...  NO
Static polarizability (Dipole/Dipole)   ...  NO
Static polarizability (Dipole/Quad.)    ...  NO
Static polarizability (Quad./Quad.)     ...  NO
Static polarizability (Velocity)        ...  NO

Atomic electric properties:
Dipole moment                           ...  NO
Quadrupole moment                       ...  NO
Static polarizability                   ...  NO

Choice of electric origin               ... Center of mass
Position of electric origin             ...    -0.000000     0.003635    -0.000001

General magnetic properties:
Magnetizability                         ...  NO

EPR properties:
g-Tensor (aka g-matrix)                 ...  NO
Zero-Field splitting spin-orbit         ...  NO
Zero-field splitting spin-spin          ...  NO
Hyperfine couplings                     ...  NO (   0 nuclei)
Quadrupole couplings                    ... YES(DKH) (   5 nuclei)
Contact density                         ...  NO (   0 nuclei)

NMR properties:
Chemical shifts                         ...  NO (   0 nuclei)
Spin-rotation constants                 ...  NO (   0 nuclei)
Spin-spin couplings                     ...  NO (   0 nuclei,    0 pairs)

Choice of magnetic origin               ... GIAO
Position of magnetic origin             ...     0.000000     0.000000     0.000000

Properties with geometric perturbations:
SCF Hessian                             ...  NO
IR spectrum                             ...  NO
VCD spectrum                            ...  NO
X-ray spectroscopy properties:
SCF XES/XAS/RIXS spectra                ...  NO

DKH transformation order                ... First
Note: picture-change corrections are only included
      for the properties annotated with "YES(DKH)"!


-------------
DIPOLE MOMENT
-------------

Method             : SCF
Type of density    : Electron Density
Multiplicity       :   1
Irrep              :   0
Energy             :  -962.6450125875588810 Eh
Relativity type    : 
Basis              : AO
                                X                 Y                 Z
Electronic contribution:     -0.000000001       2.464058556      -0.000006138
Nuclear contribution   :      0.000000000      -3.123555291       0.000007915
                        -----------------------------------------
Total Dipole Moment    :     -0.000000001      -0.659496735       0.000001777
                        -----------------------------------------
Magnitude (a.u.)       :      0.659496735
Magnitude (Debye)      :      1.676307482



--------------------
Rotational spectrum 
--------------------
 
Rotational constants in cm-1:             1.081477             0.109444             0.101311 
Rotational constants in MHz :         32421.860555          3281.046129          3037.222065 

Dipole components along the rotational axes: 
x,y,z [a.u.] :    -0.000000    -0.659497     0.000001 
x,y,z [Debye]:    -0.000000    -1.676307     0.000001 

 

Dipole moment calculation done in   0.0 sec 

-----------------------------------------
ELECTRIC AND MAGNETIC HYPERFINE STRUCTURE (5 nuclei)
-----------------------------------------

Number of nuclei to compute A(iso)       :     0
Number of nuclei to compute A(dip)       :     0
Number of nuclei to compute A(orb)       :     0
Number of nuclei to compute A(dia)       :     0
Number of nuclei to compute EFG          :     5
Number of nuclei to compute Rho(0)       :     0
Relativistic treatment                   :  DKH
DKH transformation order                 :  First

Method             : SCF
Type of density    : Electron Density
Multiplicity       :   1
Irrep              :   0
Energy             :  -962.6450125875588810 Eh
Relativity type    : 
Basis              : AO
 -----------------------------------------------------------
 Nucleus   1H : A  : Isotope=    0 I=  0.0 P=  0.0000 MHz/au**3 
                Q  : Isotope=    0 I=  0.0 Q=  0.0000 barn      
                HFC: iso  = NO dip= NO orb= NO gauge= NO    
                EFG: fgrad=YES rho= NO                      
 -----------------------------------------------------------

 Raw EFG matrix (all values in a.u.**-3):
 ------------------------------------------------------
             -0.1441650       0.0000000      -0.0000000
              0.0000000      -0.0125745       0.2076866
             -0.0000000       0.2076866       0.1567396

 V(Tot)      -0.1441650      -0.1521953       0.2963604
 Orientation: 
     X        1.0000000      -0.0000000      -0.0000000
     Y        0.0000000       0.8298991       0.5579135
     Z       -0.0000000      -0.5579135       0.8298991

 Note: Tensor is right-handed

 Contributions:
 V(El )       0.5138764       0.8002435  -1.3141199
 V(Nuc)      -0.6580414      -0.9524388   1.6104803
 -----------------------------------------------------------
 Nucleus   2H : A  : Isotope=    0 I=  0.0 P=  0.0000 MHz/au**3 
                Q  : Isotope=    0 I=  0.0 Q=  0.0000 barn      
                HFC: iso  = NO dip= NO orb= NO gauge= NO    
                EFG: fgrad=YES rho= NO                      
 -----------------------------------------------------------

 Raw EFG matrix (all values in a.u.**-3):
 ------------------------------------------------------
             -0.1441651      -0.0000000       0.0000000
             -0.0000000      -0.0125776      -0.2076854
              0.0000000      -0.2076854       0.1567426

 V(Tot)      -0.1441651      -0.1521953       0.2963604
 Orientation: 
     X        1.0000000      -0.0000000       0.0000000
     Y        0.0000000       0.8299032      -0.5579074
     Z        0.0000000       0.5579074       0.8299032

 Note: Tensor is right-handed

 Contributions:
 V(El )       0.5138757       0.8002431  -1.3141188
 V(Nuc)      -0.6580407      -0.9524385   1.6104792
 -----------------------------------------------------------
 Nucleus   0C : A  : Isotope=    0 I=  0.0 P=  0.0000 MHz/au**3 
                Q  : Isotope=    0 I=  0.0 Q=  0.0000 barn      
                HFC: iso  = NO dip= NO orb= NO gauge= NO    
                EFG: fgrad=YES rho= NO                      
 -----------------------------------------------------------

 Raw EFG matrix (all values in a.u.**-3):
 ------------------------------------------------------
              0.4117898       0.0000000      -0.0000000
              0.0000000       0.0497474      -0.0000013
             -0.0000000      -0.0000013      -0.4615372

 V(Tot)       0.0497474       0.4117898      -0.4615372
 Orientation: 
     X       -0.0000000       1.0000000      -0.0000000
     Y        1.0000000       0.0000000      -0.0000025
     Z       -0.0000025      -0.0000000      -1.0000000

 Note: Tensor is right-handed

 Contributions:
 V(El )       0.1292323      -0.3412149   0.2119826
 V(Nuc)      -0.0794849       0.7530047  -0.6735198
 -----------------------------------------------------------
 Nucleus   3Cl: A  : Isotope=    0 I=  0.0 P=  0.0000 MHz/au**3 
                Q  : Isotope=    0 I=  0.0 Q=  0.0000 barn      
                HFC: iso  = NO dip= NO orb= NO gauge= NO    
                EFG: fgrad=YES rho= NO                      
 -----------------------------------------------------------

 Raw EFG matrix (all values in a.u.**-3):
 ------------------------------------------------------
              2.2768901       2.6481519      -0.0000030
              2.6481519      -0.1300522      -0.0000023
             -0.0000030      -0.0000023      -2.1468379

 V(Tot)      -1.8353697      -2.1468379       3.9822076
 Orientation: 
     X        0.5414166       0.0000001       0.8407545
     Y       -0.8407545      -0.0000012       0.5414166
     Z        0.0000011      -1.0000000      -0.0000006

 Note: Tensor is right-handed

 Contributions:
 V(El )      -1.6418634      -1.8717410   3.5136045
 V(Nuc)      -0.1935062      -0.2750969   0.4686031
 -----------------------------------------------------------
 Nucleus   4Cl: A  : Isotope=    0 I=  0.0 P=  0.0000 MHz/au**3 
                Q  : Isotope=    0 I=  0.0 Q=  0.0000 barn      
                HFC: iso  = NO dip= NO orb= NO gauge= NO    
                EFG: fgrad=YES rho= NO                      
 -----------------------------------------------------------

 Raw EFG matrix (all values in a.u.**-3):
 ------------------------------------------------------
              2.2768901      -2.6481519       0.0000030
             -2.6481519      -0.1300522      -0.0000023
              0.0000030      -0.0000023      -2.1468379

 V(Tot)      -1.8353697      -2.1468379       3.9822076
 Orientation: 
     X        0.5414166      -0.0000001      -0.8407545
     Y        0.8407545      -0.0000012       0.5414166
     Z       -0.0000011      -1.0000000      -0.0000006

 Note: Tensor is right-handed

 Contributions:
 V(El )      -1.6418634      -1.8717410   3.5136045
 V(Nuc)      -0.1935062      -0.2750969   0.4686031

Hyperfine and quadrupole coupling calculation done in   0.0 sec 

Maximum memory used throughout the entire PROP-calculation: 14.0 MB

--------------------------------
SUGGESTED CITATIONS FOR THIS RUN
--------------------------------

Below you find a list of papers that are relevant to this ORCA run
We neither can nor want to force you to cite these papers, but we appreciate if you do
You receive ORCA, which is the product of decades of hard work by many enthusiastic individuals, for free
The only thing we kindly ask in return is that you cite our papers,
We deeply appreciate it, if you show your appreciation for ORCA by not just citing the generic ORCA reference.

Please note that relegating all ORCA citations to the supporting information does *not* help us.
SI sections are not indexed - citations you put there will not count into any citation statistics
But we need these citations in order to attract the funding resources that allow us to do what we are doing

Therefore, if you are a happy ORCA user, please consider citing a few of the papers listed below in the main body of your paper

In addition to the list printed below, the program has created the file ch2cl2_rks_def2tzvpp_efg.bibtex that contains the list in bibtex format
You can import this file easily into all common literature databanks and citation aid programs


List of essential papers. We consider these as the minimum necessary citations

  1. Neese,F.
     Software update: the ORCA program system, version 5.0
     WIRES Comput. Molec. Sci., 2022 12(1)e1606
     doi.org/10.1002/wcms.1606

List of papers to cite with high priority. The work reported in these papers was absolutely
necessary for this run to complete.
Our perspective: the developers of density functionals and basis sets usually get cited in chemistry papers
Good! But without the algorithms to do something with them, the functionals or basis sets would not do anything.
Hence, in our opinion, the algorithm design and method developments papers are equally worthy of getting cited

  1. Neese,F.; Wolf,A.; Fleig,T.; Reiher,M.; Hess,B.A.
     Calculation of electric-field gradients based on higher-order generalized Douglas-Kroll transformations
     J. Chem. Phys., 2005 122(20)Art. No. 204107
     doi.org/10.1063/1.1904589
  2. Sandhoefer,B.; Neese,F.
     One-electron contributions to the g-tensor for second-order Douglas-Kroll-Hess theory
     J. Chem. Phys., 2012 137 
     doi.org/10.1063/1.4747454
  3. Neese,F.
     The SHARK Integral Generation and Digestion System
     J. Comp. Chem., 2022  1-16
     doi.org/10.1002/jcc.26942

List of suggested additional citations. These are papers that are important in the 'surrounding' of 
of this run, or papers that preceded the highly important papers. If you like your results we are grateful for a citation.

  1. Neese,F.
     The ORCA program system
     WIRES Comput. Molec. Sci., 2012 2(1)73-78
     doi.org/10.1002/wcms.81
  2. Neese,F.
     Software update: the ORCA program system, version 4.0
     WIRES Comput. Molec. Sci., 2018 8(1)1-6
     doi.org/10.1002/wcms.1327
  3. Neese,F.; Wennmohs,F.; Becker,U.; Riplinger,C.
     The ORCA quantum chemistry program package
     J. Chem. Phys., 2020 152 Art. No. L224108
     doi.org/10.1063/5.0004608

List of optional additional citations

  1. Neese,F.
     Approximate second-order SCF convergence for spin unrestricted wavefunctions
     Chem. Phys. Lett., 2000 325(1-3)93-98
     doi.org/10.1016/s0009-2614(00)00662-x

Timings for individual modules:

Sum of individual times          ...       25.650 sec (=   0.427 min)
Startup calculation              ...        1.269 sec (=   0.021 min)   4.9 %
Relativistic integrals           ...        0.153 sec (=   0.003 min)   0.6 %
SCF iterations                   ...       23.754 sec (=   0.396 min)  92.6 %
Property integrals               ...        0.258 sec (=   0.004 min)   1.0 %
Property calculations            ...        0.215 sec (=   0.004 min)   0.8 %
                             ****ORCA TERMINATED NORMALLY****
TOTAL RUN TIME: 0 days 0 hours 0 minutes 25 seconds 737 msec
