
                                 *****************
                                 * O   R   C   A *
                                 *****************

                                            #,                                       
                                            ###                                      
                                            ####                                     
                                            #####                                    
                                            ######                                   
                                           ########,                                 
                                     ,,################,,,,,                         
                               ,,#################################,,                 
                          ,,##########################################,,             
                       ,#########################################, ''#####,          
                    ,#############################################,,   '####,        
                  ,##################################################,,,,####,       
                ,###########''''           ''''###############################       
              ,#####''   ,,,,##########,,,,          '''####'''          '####       
            ,##' ,,,,###########################,,,                        '##       
           ' ,,###''''                  '''############,,,                           
         ,,##''                                '''############,,,,        ,,,,,,###''
      ,#''                                            '''#######################'''  
     '                                                          ''''####''''         
             ,#######,   #######,   ,#######,      ##                                
            ,#'     '#,  ##    ##  ,#'     '#,    #''#        ,####,   ,####,        
            ##       ##  ##   ,#'  ##            #'  '#       #'       #'  '#        
            ##       ##  #######   ##           ,######,      #####,   #    #        
            '#,     ,#'  ##    ##  '#,     ,#' ,#      #,     #,   #   #,  ,#        
             '#######'   ##     ##  '#######'  #'      '#     '####' # '####'        



                #########################################################
                #                        -***-                          #
                #          Department of theory and spectroscopy        #
                #                                                       #
                #                      Frank Neese                      #
                #                                                       #
                #     Directorship, Architecture, Infrastructure        #
                #                    SHARK, DRIVERS                     #
                #        Core code/Algorithms in most modules           #
                #                                                       #
                #        Max Planck Institute fuer Kohlenforschung      #
                #                Kaiser Wilhelm Platz 1                 #
                #                 D-45470 Muelheim/Ruhr                 #
                #                      Germany                          #
                #                                                       #
                #                  All rights reserved                  #
                #                        -***-                          #
                #########################################################


                         Program Version 6.0.1  -  RELEASE   -


 With contributions from (in alphabetic order):
[Max-Planck-Institut fuer Kohlenforschung]                               
  Daniel Aravena         : Magnetic Suceptibility                        
  Michael Atanasov       : Ab Initio Ligand Field Theory (pilot matlab implementation)
  Alexander A. Auer      : GIAO ZORA, VPT2 properties, NMR spectrum      
  Ute Becker             : All parallelization in ORCA, NUMFREQ, NUMCALC 
  Giovanni Bistoni       : ED, misc. LED, open-shell LED, HFLD           
  Martin Brehm           : Molecular dynamics                            
  Dmytro Bykov           : pre 5.0 version of the SCF Hessian            
  Marcos Casanova-Páez   : Triplet and SCS-CIS(D). UHF-(DLPNO)-IP/EA/STEOM-CCSD. UHF-CVS-IP/STEOM-CCSD   
  Vijay G. Chilkuri      : MRCI spin determinant printing, contributions to CSF-ICE 
  Pauline Colinet        : FMM embedding                                 
  Dipayan Datta          : RHF DLPNO-CCSD density                        
  Achintya Kumar Dutta   : EOM-CC, STEOM-CC                              
  Nicolas Foglia         : Exact transition moments, OPA infrastructure, MCD improvements    
  Dmitry Ganyushin       : Spin-Orbit,Spin-Spin,Magnetic field MRCI      
  Miquel Garcia-Rates    : C-PCM and meta-GGA Hessian, CCSD/C-PCM, Gaussian charge scheme 
  Tiago L. C. Gouveia    : GS-ROHF, GS-ROCIS                             
  Yang Guo               : DLPNO-NEVPT2, F12-NEVPT2, CIM, IAO-localization        
  Andreas Hansen         : Spin unrestricted coupled pair/coupled cluster methods 
  Ingolf Harden          : AUTO-CI MPn and infrastructure                
  Benjamin Helmich-Paris : MC-RPA, TRAH-(SCF,CASSCF), AVAS, COSX integrals, SCF dyn. polar. 
  Lee Huntington         : MR-EOM, pCC                                   
  Robert Izsak           : Overlap fitted RIJCOSX, COSX-SCS-MP3, EOM     
  Riya Kayal             : Wick's Theorem for AUTO-CI, AUTO-CI UHF-CCSDT 
  Emily Kempfer          : AUTO-CI, RHF CISDT and CCSDT                  
  Christian Kollmar      : KDIIS, OOCD, Brueckner-CCSD(T), CCSD density, CASPT2, CASPT2-K, improved NEVPT2 
  Axel Koslowski         : Symmetry handling                             
  Simone Kossmann        : meta-GGA functionals, TD-DFT gradient, OOMP2, (MP2 Hessian; deprecated post 5.0) 
  Lucas Lang             : DCDCAS                                        
  Marvin Lechner         : AUTO-CI (C++ implementation), FIC-MRCC        
  Spencer Leger          : CASSCF response                               
  Dagmar Lenk            : GEPOL surface, SMD, ORCA-2-JSON               
  Dimitrios Liakos       : Extrapolation schemes; Compound Job, initial MDCI parallelization 
  Dimitrios Manganas     : Further ROCIS development; embedding schemes. LFT, Crystal Embedding 
  Dimitrios Pantazis     : SARC Basis sets                               
  Anastasios Papadopoulos: AUTO-CI, single reference methods and gradients 
  Taras Petrenko         : pre 6.0 DFT Hessian and TD-DFT gradient, (ASA, deprecated), ECA, 1-Electron XAS/XES, NRVS 
  Peter Pinski           : DLPNO-MP2, DLPNO-MP2 Gradient                 
  Christoph Reimann      : Effective Core Potentials                     
  Marius Retegan         : Local ZFS, SOC                                
  Christoph Riplinger    : Optimizer, TS searches, QM/MM, DLPNO-CCSD(T), (RO)-DLPNO pert. Triples 
  Michael Roemelt        : Original ROCIS implementation                 
  Masaaki Saitow         : Open-shell DLPNO-CCSD energy and density      
  Barbara Sandhoefer     : DKH picture change effects                    
  Kantharuban Sivalingam : CASSCF convergence/infrastructure, NEVPT2 and variants, FIC-MRCI 
  Bernardo de Souza      : ESD, SOC TD-DFT                               
  Georgi L. Stoychev     : AutoAux, RI-MP2 NMR, DLPNO-MP2 response, X2C  
  Van Anh Tran           : RI-MP2 g-tensors                              
  Willem Van den Heuvel  : Paramagnetic NMR                              
  Zikuan Wang            : NOTCH, Electric field optimization            
  Frank Wennmohs         : Technical directorship and infrastructure     
  Hang Xu                : AUTO-CI-Response properties                   
                                                                         
[FACCTs GmbH]                                                            
  Markus Bursch, Miquel Garcia-Rates, Christoph Riplinger, Bernardo de Souza, Georgi L. Stoychev 
                                                                 
  APM, Basis sets (HGBS, AHGBS, def-TZVP (Ac-Lr), def2-XVPD (La-Lu)), CI-OPT, improved COSX, DLPNO-Multilevel,           
  DOCKER, DRACO, updates on ESD, GOAT, IRC, LR-CPCM, MBIS, meta-GGA TD-DFT gradient, ML-optimized integration grids, 
  MM, NACMEs, nearIR, NEB, NEB-TS, NL-DFT gradient (VV10), 2- and 3-layer-ONIOM, interface openCOSMO-RS, QMMM,   
  Crystal-QMMM, SF, symmetry and pop. for TD-DFT, r2SCAN hybrids, SOLVATOR                                   
                                                                         
[Other institutions]                                                     
  V. Asgeirsson          : NEB                                           
  Christoph Bannwarth    : sTDA-DFT, sTD-DFT, PBEh-3c, B97-3c, D3        
  Sebastian Ehlert       : rSCAN, r2SCAN, r2SCAN-3c, D4, dhf basis sets  
  Marvin Friede          : D4 for Fr, Ra, Ac-Lr                          
  Lars Goerigk           : TD-DFT with DH, B97 family of functionals     
  Stefan Grimme          : VdW corrections, initial TS optimization, DFT functionals, gCP, sTDA/sTD-DF 
  Waldemar Hujo          : DFT-NL                                        
  H. Jonsson             : NEB                                           
  Holger Kruse           : gCP                                           
  Marcel Mueller         : wB97X-3c, vDZP basis set                      
  Hagen Neugebauer       : wr2SCAN                                       
  Tobias Risthaus        : range-separated hybrid DFT                    
  Lukas Wittmann         : regularized MP2, r2SCAN double-hybrids, wr2SCAN        
                                                                         
We gratefully acknowledge several colleagues who have allowed us to      
interface, adapt or use parts of their codes:                            
  Ed Valeev, F. Pavosevic, A. Kumar             : LibInt (2-el integral package), F12 methods 
  Garnet Chan, S. Sharma, J. Yang, R. Olivares  : DMRG                   
  Ulf Ekstrom                                   : XCFun DFT Library      
  Mihaly Kallay                                 : mrcc  (arbitrary order and MRCC methods)
  Frank Weinhold                                : gennbo (NPA and NBO analysis)           
  Simon Mueller                                 : openCOSMO-RS                            
  Christopher J. Cramer and Donald G. Truhlar   : smd solvation model                     
  S Lehtola, MJT Oliveira, MAL Marques          : LibXC Library                           
  Liviu Ungur et al                             : ANISO software                          


 Your calculation uses the libint2 library for the computation of 2-el integrals
 For citations please refer to: http://libint.valeyev.net

 Your ORCA version has been built with support for libXC version: 6.2.2
 For citations please refer to: https://libxc.gitlab.io

 This ORCA versions uses:
   CBLAS   interface :  Fast vector & matrix operations
   LAPACKE interface :  Fast linear algebra routines
   SCALAPACK package :  Parallel linear algebra routines
   Shared memory     :  Shared parallel matrices


NOTE: MaxCore=10000 MB was set to SCF,MP2,MDCI,CIPSI,MRCI and CIS
      => If you want to overwrite this, your respective input block should be placed after the MaxCore statement
Warning: RI is on but no J-basis has been assigned. Assigning Def2/J (nothing to worry about!)
================================================================================

----- Orbital basis set information -----
Your calculation utilizes the basis: def2-TZVPP
   F. Weigend and R. Ahlrichs, Phys. Chem. Chem. Phys. 7, 3297 (2005).

----- AuxJ basis set information -----
Your calculation utilizes the auxiliary basis: def2/J
   F. Weigend, Phys. Chem. Chem. Phys. 8, 1057 (2006).

================================================================================
                                        WARNINGS
                       Please study these warnings very carefully!
================================================================================


================================================================================
                                       INPUT FILE
================================================================================
NAME = ch2cl2_b3lyp_def2tzvpp_pol.inp
|  1> ! B3LYP def2-TZVPP
|  2> 
|  3> %MaxCore 10000
|  4> 
|  5> %elprop
|  6> Polar 1
|  7> end
|  8> 
|  9> * xyz 0 1
| 10>   C          -0.00000000001621     -0.80142236709582      0.00000072163835
| 11>   H           0.00000000002945     -1.41063135299497     -0.89396614965566
| 12>   H           0.00000000002903     -1.41062470375924      0.89397212084555
| 13>   Cl          1.46614804313191      0.17816692189874     -0.00000108141425
| 14>   Cl         -1.46614804317418      0.17816692195128     -0.00000108141399
| 15> *
| 16> 
| 17> 
| 18>                          ****END OF INPUT****
================================================================================

                       ****************************
                       * Single Point Calculation *
                       ****************************

---------------------------------
CARTESIAN COORDINATES (ANGSTROEM)
---------------------------------
  C     -0.000000   -0.801422    0.000001
  H      0.000000   -1.410631   -0.893966
  H      0.000000   -1.410625    0.893972
  Cl     1.466148    0.178167   -0.000001
  Cl    -1.466148    0.178167   -0.000001

----------------------------
CARTESIAN COORDINATES (A.U.)
----------------------------
  NO LB      ZA    FRAG     MASS         X           Y           Z
   0 C     6.0000    0    12.011   -0.000000   -1.514469    0.000001
   1 H     1.0000    0     1.008    0.000000   -2.665707   -1.689351
   2 H     1.0000    0     1.008    0.000000   -2.665694    1.689362
   3 Cl   17.0000    0    35.453    2.770618    0.336687   -0.000002
   4 Cl   17.0000    0    35.453   -2.770618    0.336687   -0.000002

--------------------------------
INTERNAL COORDINATES (ANGSTROEM)
--------------------------------
 C      0   0   0     0.000000000000     0.00000000     0.00000000
 H      1   0   0     1.081809759372     0.00000000     0.00000000
 H      1   2   0     1.081809756656   111.45414258     0.00000000
 Cl     1   2   3     1.763288195260   108.23101684   118.90417913
 Cl     1   2   3     1.763288195297   108.23101684   241.09582086

---------------------------
INTERNAL COORDINATES (A.U.)
---------------------------
 C      0   0   0     0.000000000000     0.00000000     0.00000000
 H      1   0   0     2.044324174215     0.00000000     0.00000000
 H      1   2   0     2.044324169084   111.45414258     0.00000000
 Cl     1   2   3     3.332131784218   108.23101684   118.90417913
 Cl     1   2   3     3.332131784288   108.23101684   241.09582086

---------------------
BASIS SET INFORMATION
---------------------
There are 3 groups of distinct atoms

 Group   1 Type C   : 11s6p2d1f contracted to 5s3p2d1f pattern {62111/411/11/1}
 Group   2 Type H   : 5s2p1d contracted to 3s2p1d pattern {311/11/1}
 Group   3 Type Cl  : 14s9p3d1f contracted to 5s5p3d1f pattern {73211/51111/111/1}

Atom   0C    basis set group =>   1
Atom   1H    basis set group =>   2
Atom   2H    basis set group =>   2
Atom   3Cl   basis set group =>   3
Atom   4Cl   basis set group =>   3
---------------------------------
AUXILIARY/J BASIS SET INFORMATION
---------------------------------
There are 3 groups of distinct atoms

 Group   1 Type C   : 12s5p4d2f1g contracted to 6s4p3d1f1g pattern {711111/2111/211/2/1}
 Group   2 Type H   : 5s2p1d contracted to 3s1p1d pattern {311/2/1}
 Group   3 Type Cl  : 14s5p5d2f1g contracted to 8s4p3d1f1g pattern {71111111/2111/311/2/1}

Atom   0C    basis set group =>   1
Atom   1H    basis set group =>   2
Atom   2H    basis set group =>   2
Atom   3Cl   basis set group =>   3
Atom   4Cl   basis set group =>   3
------------------------------------------------------------------------------
                             ORCA STARTUP CALCULATIONS
                           -- RI-GTO INTEGRALS CHOSEN --
------------------------------------------------------------------------------
------------------------------------------------------------------------------
                   ___                                                        
                  /   \      - P O W E R E D   B Y -                         
                 /     \                                                     
                 |  |  |   _    _      __       _____    __    __             
                 |  |  |  | |  | |    /  \     |  _  \  |  |  /  |          
                  \  \/   | |  | |   /    \    | | | |  |  | /  /          
                 / \  \   | |__| |  /  /\  \   | |_| |  |  |/  /          
                |  |  |   |  __  | /  /__\  \  |    /   |      \           
                |  |  |   | |  | | |   __   |  |    \   |  |\   \          
                \     /   | |  | | |  |  |  |  | |\  \  |  | \   \       
                 \___/    |_|  |_| |__|  |__|  |_| \__\ |__|  \__/        
                                                                              
                      - O R C A' S   B I G   F R I E N D -                    
                                      &                                       
                       - I N T E G R A L  F E E D E R -                       
                                                                              
 v1 FN, 2020, v2 2021, v3 2022-2024                                           
------------------------------------------------------------------------------


----------------------
SHARK INTEGRAL PACKAGE
----------------------

Number of atoms                             ...      5
Number of basis functions                   ...    143
Number of shells                            ...     51
Maximum angular momentum                    ...      3
Integral batch strategy                     ... SHARK/LIBINT Hybrid
RI-J (if used) integral strategy            ... SPLIT-RIJ (Revised 2003 algorithm where possible)
Printlevel                                  ...      1
Contraction scheme used                     ... SEGMENTED contraction
Prescreening option                         ... SCHWARTZ
   Thresh                                   ... 1.000e-10
   Tcut                                     ... 1.000e-11
   Tpresel                                  ... 1.000e-11 
Coulomb Range Separation                    ... NOT USED
Exchange Range Separation                   ... NOT USED
Multipole approximations                    ... NOT USED
Finite Nucleus Model                        ... NOT USED
CABS basis                                  ... NOT available
Auxiliary Coulomb fitting basis             ... AVAILABLE
   # of basis functions in Aux-J            ...    173
   # of shells in Aux-J                     ...     59
   Maximum angular momentum in Aux-J        ...      4
Auxiliary J/K fitting basis                 ... NOT available
Auxiliary Correlation fitting basis         ... NOT available
Auxiliary 'external' fitting basis          ... NOT available

Checking pre-screening integrals            ... done (  0.0 sec) Dimension = 51
Check shell pair data                       ... done (  0.0 sec)
Shell pair information
Shell pair cut-off parameter TPreSel        ...   1.0e-11
Total number of shell pairs                 ...      1326
Shell pairs after pre-screening             ...      1268
Total number of primitive shell pairs       ...      4193
Primitive shell pairs kept                  ...      3262
          la=0 lb=0:    216 shell pairs
          la=1 lb=0:    333 shell pairs
          la=1 lb=1:    149 shell pairs
          la=2 lb=0:    200 shell pairs
          la=2 lb=1:    166 shell pairs
          la=2 lb=2:     54 shell pairs
          la=3 lb=0:     63 shell pairs
          la=3 lb=1:     51 shell pairs
          la=3 lb=2:     30 shell pairs
          la=3 lb=3:      6 shell pairs

Calculating one electron integrals          ... done (  0.0 sec)
Calculating RI/J V-Matrix + Cholesky decomp.... done (  0.0 sec)
Calculating Nuclear repulsion               ... done (  0.0 sec) ENN=    134.923768344310 Eh

Diagonalization of the overlap matrix:
Smallest eigenvalue                        ... 5.507e-04
Time for diagonalization                   ...    0.001 sec
Threshold for overlap eigenvalues          ... 1.000e-07
Number of eigenvalues below threshold      ... 0
Time for construction of square roots      ...    0.001 sec
Total time needed                          ...    0.002 sec

-------------------
DFT GRID GENERATION
-------------------

General Integration Accuracy     IntAcc      ... 4.388
Radial Grid Type                 RadialGrid  ... OptM3 with GC (2021)
Angular Grid (max. ang.)         AngularGrid ... 4 (Lebedev-302)
Angular grid pruning method      GridPruning ... 4 (adaptive)
Weight generation scheme         WeightScheme... mBecke (2022)
Basis function cutoff            BFCut       ... 1.0000e-10
Integration weight cutoff        WCut        ... 1.0000e-14
Partially contracted basis set               ... off
Rotationally invariant grid construction     ... off
Angular grids for H and He will be reduced by one unit

Total number of grid points                  ...    27352
Total number of batches                      ...      430
Average number of points per batch           ...       63
Average number of grid points per atom       ...     5470

--------------------
COSX GRID GENERATION
--------------------

GRIDX 1
-------
General Integration Accuracy     IntAcc      ... 3.816
Radial Grid Type                 RadialGrid  ... OptM3 with GC (2021)
Angular Grid (max. ang.)         AngularGrid ... 1 (Lebedev-50)
Angular grid pruning method      GridPruning ... 4 (adaptive)
Weight generation scheme         WeightScheme... mBecke (2022)
Basis function cutoff            BFCut       ... 1.0000e-10
Integration weight cutoff        WCut        ... 1.0000e-14
Partially contracted basis set               ... on
Rotationally invariant grid construction     ... off
Angular grids for H and He will be reduced by one unit

Total number of grid points                  ...     5576
Total number of batches                      ...       47
Average number of points per batch           ...      118
Average number of grid points per atom       ...     1115
UseSFitting                                  ... on

GRIDX 2
-------
General Integration Accuracy     IntAcc      ... 4.020
Radial Grid Type                 RadialGrid  ... OptM3 with GC (2021)
Angular Grid (max. ang.)         AngularGrid ... 2 (Lebedev-110)
Angular grid pruning method      GridPruning ... 4 (adaptive)
Weight generation scheme         WeightScheme... mBecke (2022)
Basis function cutoff            BFCut       ... 1.0000e-10
Integration weight cutoff        WCut        ... 1.0000e-14
Partially contracted basis set               ... on
Rotationally invariant grid construction     ... off
Angular grids for H and He will be reduced by one unit

Total number of grid points                  ...     7414
Total number of batches                      ...       61
Average number of points per batch           ...      121
Average number of grid points per atom       ...     1483
UseSFitting                                  ... on

GRIDX 3
-------
General Integration Accuracy     IntAcc      ... 4.338
Radial Grid Type                 RadialGrid  ... OptM3 with GC (2021)
Angular Grid (max. ang.)         AngularGrid ... 3 (Lebedev-194)
Angular grid pruning method      GridPruning ... 4 (adaptive)
Weight generation scheme         WeightScheme... mBecke (2022)
Basis function cutoff            BFCut       ... 1.0000e-10
Integration weight cutoff        WCut        ... 1.0000e-14
Partially contracted basis set               ... on
Rotationally invariant grid construction     ... off
Angular grids for H and He will be reduced by one unit

Total number of grid points                  ...    17630
Total number of batches                      ...      140
Average number of points per batch           ...      125
Average number of grid points per atom       ...     3526
UseSFitting                                  ... on
Initializing property integral containers    ... done (  0.0 sec)

SHARK setup successfully completed in   0.2 seconds

Maximum memory used throughout the entire STARTUP-calculation: 15.8 MB
-------------------------------------------------------------------------------
                                 ORCA GUESS
                   Start orbitals & Density for SCF / CASSCF
-------------------------------------------------------------------------------

------------
SCF SETTINGS
------------
Hamiltonian:
 Density Functional     Method          .... DFT(GTOs)
 Exchange Functional    Exchange        .... B88
   X-Alpha parameter    XAlpha          ....  0.666667
   Becke's b parameter  XBeta           ....  0.004200
 Correlation Functional Correlation     .... LYP
 LDA part of GGA corr.  LDAOpt          .... VWN-5
 Gradients option       PostSCFGGA      .... off
 Hybrid DFT is turned on
   Fraction HF Exchange ScalHFX         ....  0.200000
   Scaling of DF-GGA-X  ScalDFX         ....  0.720000
   Scaling of DF-GGA-C  ScalDFC         ....  0.810000
   Scaling of DF-LDA-C  ScalLDAC        ....  1.000000
   Perturbative correction              ....  0.000000
   NL short-range parameter             ....  4.800000
 RI-approximation to the Coulomb term is turned on
   Number of AuxJ basis functions       .... 173
   RIJ-COSX (HFX calculated with COS-X)).... on


General Settings:
 Integral files         IntName         .... ch2cl2_b3lyp_def2tzvpp_pol
 Hartree-Fock type      HFTyp           .... RHF
 Total Charge           Charge          ....    0
 Multiplicity           Mult            ....    1
 Number of Electrons    NEL             ....   42
 Basis Dimension        Dim             ....  143
 Nuclear Repulsion      ENuc            ....    134.9237683443 Eh

Convergence Acceleration:
 AO-DIIS                CNVDIIS         .... on
   Start iteration      DIISMaxIt       ....    12
   Startup error        DIISStart       ....  0.200000
   # of expansion vecs  DIISMaxEq       ....     5
   Bias factor          DIISBfac        ....   1.050
   Max. coefficient     DIISMaxC        ....  10.000
 MO-DIIS                CNVKDIIS        .... off
 Trust-Rad. Augm. Hess. CNVTRAH         .... auto
   Auto Start mean grad. ratio tolernc. ....  1.125000
   Auto Start start iteration           ....    50
   Auto Start num. interpolation iter.  ....    10
   Max. Number of Micro iterations      ....    24
   Max. Number of Macro iterations      .... Maxiter - #DIIS iter
   Number of Davidson start vectors     ....     2
   Converg. threshold    (grad. norm)   ....   5.000e-05
   Grad. Scal. Fac. for Micro threshold ....   0.100
   Minimum threshold for Micro iter.    ....   1.000e-02
   NR start threshold (gradient norm)   ....   1.000e-04
   Initial trust radius                 ....   0.400
   Minimum AH scaling param. (alpha)    ....   1.000
   Maximum AH scaling param. (alpha)    .... 1000.000
   Quad. conv. algorithm                .... NR
   White noise on init. David. guess    .... on
   Maximum white noise                  ....   0.010
   Pseudo random numbers                .... off
   Inactive MOs                         .... canonical
   Orbital update algorithm             .... Taylor
   Preconditioner                       .... Diag
   Full preconditioner red. dimension   ....   250
 SOSCF                  CNVSOSCF        .... on
   Start iteration      SOSCFMaxIt      ....   150
   Startup grad/error   SOSCFStart      ....  0.003300
   Hessian update       SOSCFHessUp     .... L-BFGS
 Level Shifting         CNVShift        .... on
   Level shift para.    LevelShift      ....    0.2500
   Turn off err/grad.   ShiftErr        ....    0.0010
 Zerner damping         CNVZerner       .... off
 Static damping         CNVDamp         .... on
   Fraction old density DampFac         ....    0.7000
   Max. Damping (<1)    DampMax         ....    0.9800
   Min. Damping (>=0)   DampMin         ....    0.0000
   Turn off err/grad.   DampErr         ....    0.1000

SCF Procedure:
 Maximum # iterations   MaxIter         ....   125
 SCF integral mode      SCFMode         .... Direct
   Integral package                     .... SHARK and LIBINT hybrid scheme
 Reset frequency        DirectResetFreq ....    20
 Integral Threshold     Thresh          ....  1.000e-10 Eh
 Primitive CutOff       TCut            ....  1.000e-11 Eh

Convergence Tolerance:
 Convergence Check Mode ConvCheckMode   .... Total+1el-Energy
 Convergence forced     ConvForced      .... 0
 Energy Change          TolE            ....  1.000e-06 Eh
 1-El. energy change                    ....  1.000e-03 Eh
 Orbital Gradient       TolG            ....  5.000e-05
 Orbital Rotation angle TolX            ....  5.000e-05
 DIIS Error             TolErr          ....  1.000e-06

------------------------------
INITIAL GUESS: MODEL POTENTIAL
------------------------------
Loading Hartree-Fock densities                     ... done
Calculating cut-offs                               ... done
Initializing the effective Hamiltonian             ... done
Setting up the integral package (SHARK)            ... done
Starting the Coulomb interaction                   ... done (   0.0 sec)
Making the grid                                    ... done (   0.0 sec)
Mapping shells                                     ... done
Starting the XC term evaluation                    ... done (   0.0 sec)
  promolecular density results
     # of electrons  =     41.999004201
     EX              =    -60.784996850
     EC              =     -1.670806426
     EX+EC           =    -62.455803276
Transforming the Hamiltonian                       ... done (   0.0 sec)
Diagonalizing the Hamiltonian                      ... done (   0.0 sec)
Back transforming the eigenvectors                 ... done (   0.0 sec)
Now organizing SCF variables                       ... done
                      ------------------
                      INITIAL GUESS DONE (   0.1 sec)
                      ------------------
             **** ENERGY FILE WAS UPDATED (ch2cl2_b3lyp_def2tzvpp_pol.en.tmp) ****
Finished Guess after   0.1 sec
Maximum memory used throughout the entire GUESS-calculation: 10.9 MB

-------------------------------------------------------------------------------------------
                                      ORCA LEAN-SCF
                              memory conserving SCF solver
-------------------------------------------------------------------------------------------

----------------------------------------D-I-I-S--------------------------------------------
Iteration    Energy (Eh)           Delta-E    RMSDP     MaxDP     DIISErr   Damp  Time(sec)
-------------------------------------------------------------------------------------------
               ***  Starting incremental Fock matrix formation  ***
    1    -959.5999590162967934     0.00e+00  8.02e-04  2.92e-02  7.40e-02  0.700   0.7
    2    -959.6071019942809244    -7.14e-03  5.99e-04  2.09e-02  3.91e-02  0.700   0.5
                               ***Turning on AO-DIIS***
    3    -959.6106842602490588    -3.58e-03  2.98e-04  9.76e-03  1.88e-02  0.700   0.5
    4    -959.6128734032382681    -2.19e-03  5.54e-04  1.60e-02  1.23e-02  0.000   0.5
                              *** Initializing SOSCF ***
---------------------------------------S-O-S-C-F--------------------------------------
Iteration    Energy (Eh)           Delta-E    RMSDP     MaxDP     MaxGrad    Time(sec)
--------------------------------------------------------------------------------------
    5    -959.6175835476284419    -4.71e-03  5.79e-05  1.07e-03  1.64e-03     0.5
               *** Restarting incremental Fock matrix formation ***
    6    -959.6176023250437765    -1.88e-05  2.39e-05  6.67e-04  2.16e-04     0.7
    7    -959.6176017961596472     5.29e-07  1.09e-05  2.10e-04  3.93e-04     0.6
                 **** Energy Check signals convergence ****

               *****************************************************
               *                     SUCCESS                       *
               *           SCF CONVERGED AFTER   7 CYCLES          *
               *****************************************************

Recomputing exchange energy using gridx3       ... done (    1.126 sec)
Old exchange energy                            :    -12.196002468 Eh
New exchange energy                            :    -12.195994787 Eh
Exchange energy change after final integration :      0.000007680 Eh
Total energy after final integration           :   -959.617594116 Eh
             **** ENERGY FILE WAS UPDATED (ch2cl2_b3lyp_def2tzvpp_pol.en.tmp) ****

----------------
TOTAL SCF ENERGY
----------------

Total Energy       :       -959.61759411583239 Eh          -26112.52227 eV

Components:
Nuclear Repulsion  :        134.92376834430971 Eh            3671.46239 eV
Electronic Energy  :      -1094.54137014046933 Eh          -29783.98487 eV
One Electron Energy:      -1591.92961653196812 Eh          -43318.60714 eV
Two Electron Energy:        497.38824639149874 Eh           13534.62227 eV

Virial components:
Potential Energy   :      -1917.91533669454429 Eh          -52189.12956 eV
Kinetic Energy     :        958.29774257871190 Eh           26076.60728 eV
Virial Ratio       :          2.00137728753651

DFT components:
N(Alpha)           :       21.000000438719 electrons
N(Beta)            :       21.000000438719 electrons
N(Total)           :       42.000000877437 electrons
E(X)               :      -48.404408852255 Eh       
E(C)               :       -1.959676045630 Eh       
E(XC)              :      -50.364084897885 Eh       

---------------
SCF CONVERGENCE
---------------

  Last Energy change         ...   -5.2888e-07  Tolerance :   1.0000e-06
  Last MAX-Density change    ...    2.0997e-04  Tolerance :   1.0000e-05
  Last RMS-Density change    ...    1.0937e-05  Tolerance :   1.0000e-06
  Last DIIS Error            ...    1.6425e-03  Tolerance :   1.0000e-06
  Last Orbital Gradient      ...    3.9304e-04  Tolerance :   5.0000e-05
  Last Orbital Rotation      ...    3.1514e-04  Tolerance :   5.0000e-05


----------------
ORBITAL ENERGIES
----------------

  NO   OCC          E(Eh)            E(eV) 
   0   2.0000    -101.530636     -2762.7891 
   1   2.0000    -101.530633     -2762.7890 
   2   2.0000     -10.289078      -279.9800 
   3   2.0000      -9.463100      -257.5040 
   4   2.0000      -9.463094      -257.5039 
   5   2.0000      -7.224848      -196.5981 
   6   2.0000      -7.224845      -196.5980 
   7   2.0000      -7.216038      -196.3584 
   8   2.0000      -7.216035      -196.3583 
   9   2.0000      -7.215644      -196.3476 
  10   2.0000      -7.215642      -196.3476 
  11   2.0000      -0.907361       -24.6906 
  12   2.0000      -0.828552       -22.5460 
  13   2.0000      -0.666136       -18.1265 
  14   2.0000      -0.499830       -13.6011 
  15   2.0000      -0.465361       -12.6631 
  16   2.0000      -0.448547       -12.2056 
  17   2.0000      -0.332364        -9.0441 
  18   2.0000      -0.329152        -8.9567 
  19   2.0000      -0.311209        -8.4684 
  20   2.0000      -0.306458        -8.3391 
  21   0.0000      -0.006873        -0.1870 
  22   0.0000       0.031204         0.8491 
  23   0.0000       0.050329         1.3695 
  24   0.0000       0.079951         2.1756 
  25   0.0000       0.159960         4.3527 
  26   0.0000       0.164550         4.4776 
  27   0.0000       0.223345         6.0775 
  28   0.0000       0.233451         6.3525 
  29   0.0000       0.287726         7.8294 
  30   0.0000       0.303017         8.2455 
  31   0.0000       0.332599         9.0505 
*Only the first 10 virtual orbitals were printed.

                    ********************************
                    * MULLIKEN POPULATION ANALYSIS *
                    ********************************

-----------------------
MULLIKEN ATOMIC CHARGES
-----------------------
   0 C :   -0.111129
   1 H :    0.163802
   2 H :    0.163802
   3 Cl:   -0.108237
   4 Cl:   -0.108238
Sum of atomic charges:   -0.0000000

--------------------------------
MULLIKEN REDUCED ORBITAL CHARGES
--------------------------------
  0 C s       :     3.212896  s :     3.212896
      pz      :     1.138469  p :     2.747598
      px      :     0.721055
      py      :     0.888074
      dz2     :     0.017371  d :     0.143149
      dxz     :     0.025267
      dyz     :     0.033001
      dx2y2   :     0.037957
      dxy     :     0.029554
      f0      :     0.000794  f :     0.007487
      f+1     :     0.000763
      f-1     :     0.001083
      f+2     :     0.000136
      f-2     :     0.001120
      f+3     :     0.001948
      f-3     :     0.001643

  1 H s       :     0.803707  s :     0.803707
      pz      :     0.011493  p :     0.030600
      px      :     0.009569
      py      :     0.009537
      dz2     :     0.000678  d :     0.001892
      dxz     :     0.000560
      dyz     :     0.000053
      dx2y2   :     0.000116
      dxy     :     0.000485

  2 H s       :     0.803707  s :     0.803707
      pz      :     0.011493  p :     0.030599
      px      :     0.009569
      py      :     0.009537
      dz2     :     0.000678  d :     0.001892
      dxz     :     0.000560
      dyz     :     0.000053
      dx2y2   :     0.000116
      dxy     :     0.000485

  3 Cls       :     5.902794  s :     5.902794
      pz      :     3.960783  p :    11.142317
      px      :     3.452165
      py      :     3.729369
      dz2     :     0.008250  d :     0.057672
      dxz     :     0.008003
      dyz     :     0.005771
      dx2y2   :     0.013001
      dxy     :     0.022648
      f0      :     0.000450  f :     0.005453
      f+1     :     0.000861
      f-1     :     0.000387
      f+2     :     0.000077
      f-2     :     0.000723
      f+3     :     0.001006
      f-3     :     0.001949

  4 Cls       :     5.902793  s :     5.902793
      pz      :     3.960783  p :    11.142319
      px      :     3.452166
      py      :     3.729370
      dz2     :     0.008250  d :     0.057672
      dxz     :     0.008003
      dyz     :     0.005771
      dx2y2   :     0.013001
      dxy     :     0.022648
      f0      :     0.000450  f :     0.005453
      f+1     :     0.000861
      f-1     :     0.000387
      f+2     :     0.000077
      f-2     :     0.000723
      f+3     :     0.001006
      f-3     :     0.001949



                     *******************************
                     * LOEWDIN POPULATION ANALYSIS *
                     *******************************

----------------------
LOEWDIN ATOMIC CHARGES
----------------------
   0 C :   -0.585931
   1 H :   -0.023700
   2 H :   -0.023700
   3 Cl:    0.316666
   4 Cl:    0.316666

-------------------------------
LOEWDIN REDUCED ORBITAL CHARGES
-------------------------------
  0 C s       :     2.863723  s :     2.863723
      pz      :     1.124978  p :     3.084715
      px      :     0.953421
      py      :     1.006316
      dz2     :     0.081797  d :     0.584854
      dxz     :     0.083972
      dyz     :     0.113586
      dx2y2   :     0.138578
      dxy     :     0.166921
      f0      :     0.004687  f :     0.052639
      f+1     :     0.007495
      f-1     :     0.005238
      f+2     :     0.004938
      f-2     :     0.006393
      f+3     :     0.012280
      f-3     :     0.011609

  1 H s       :     0.833303  s :     0.833303
      pz      :     0.070015  p :     0.158990
      px      :     0.034652
      py      :     0.054324
      dz2     :     0.009709  d :     0.031407
      dxz     :     0.005203
      dyz     :     0.010260
      dx2y2   :     0.003035
      dxy     :     0.003200

  2 H s       :     0.833303  s :     0.833303
      pz      :     0.070015  p :     0.158991
      px      :     0.034652
      py      :     0.054323
      dz2     :     0.009709  d :     0.031407
      dxz     :     0.005203
      dyz     :     0.010260
      dx2y2   :     0.003035
      dxy     :     0.003200

  3 Cls       :     5.590064  s :     5.590064
      pz      :     3.885287  p :    10.988590
      px      :     3.427256
      py      :     3.676047
      dz2     :     0.013098  d :     0.093603
      dxz     :     0.015265
      dyz     :     0.009648
      dx2y2   :     0.021778
      dxy     :     0.033814
      f0      :     0.001173  f :     0.011077
      f+1     :     0.001530
      f-1     :     0.000724
      f+2     :     0.000216
      f-2     :     0.001819
      f+3     :     0.002326
      f-3     :     0.003290

  4 Cls       :     5.590064  s :     5.590064
      pz      :     3.885287  p :    10.988590
      px      :     3.427257
      py      :     3.676047
      dz2     :     0.013098  d :     0.093603
      dxz     :     0.015265
      dyz     :     0.009648
      dx2y2   :     0.021778
      dxy     :     0.033814
      f0      :     0.001173  f :     0.011077
      f+1     :     0.001530
      f-1     :     0.000724
      f+2     :     0.000216
      f-2     :     0.001819
      f+3     :     0.002326
      f-3     :     0.003290



                      *****************************
                      * MAYER POPULATION ANALYSIS *
                      *****************************

  NA   - Mulliken gross atomic population
  ZA   - Total nuclear charge
  QA   - Mulliken gross atomic charge
  VA   - Mayer's total valence
  BVA  - Mayer's bonded valence
  FA   - Mayer's free valence

  ATOM       NA         ZA         QA         VA         BVA        FA
  0 C      6.1111     6.0000    -0.1111     4.1394     4.1394    -0.0000
  1 H      0.8362     1.0000     0.1638     0.9739     0.9739    -0.0000
  2 H      0.8362     1.0000     0.1638     0.9739     0.9739     0.0000
  3 Cl    17.1082    17.0000    -0.1082     1.1619     1.1619    -0.0000
  4 Cl    17.1082    17.0000    -0.1082     1.1619     1.1619    -0.0000

  Mayer bond orders larger than 0.100000
B(  0-C ,  1-H ) :   0.9593 B(  0-C ,  2-H ) :   0.9593 B(  0-C ,  3-Cl) :   1.1104 
B(  0-C ,  4-Cl) :   1.1104 

-------
TIMINGS
-------

Total SCF time: 0 days 0 hours 0 min 4 sec 

Total time                  ....       4.971 sec
Sum of individual times     ....       4.968 sec  ( 99.9%)

SCF preparation             ....       0.028 sec  (  0.6%)
Fock matrix formation       ....       4.906 sec  ( 98.7%)
  Startup                   ....       0.001 sec  (  0.0% of F)
  Split-RI-J                ....       0.176 sec  (  3.6% of F)
  Chain of spheres X        ....       3.966 sec  ( 80.8% of F)
  XC integration            ....       0.752 sec  ( 15.3% of F)
    Basis function eval.    ....       0.253 sec  ( 33.6% of XC)
    Density eval.           ....       0.120 sec  ( 16.0% of XC)
    XC-Functional eval.     ....       0.029 sec  (  3.9% of XC)
    XC-Potential eval.      ....       0.307 sec  ( 40.8% of XC)
Diagonalization             ....       0.000 sec  (  0.0%)
Density matrix formation    ....       0.004 sec  (  0.1%)
Total Energy calculation    ....       0.001 sec  (  0.0%)
Population analysis         ....       0.003 sec  (  0.1%)
Orbital Transformation      ....       0.004 sec  (  0.1%)
Orbital Orthonormalization  ....       0.000 sec  (  0.0%)
DIIS solution               ....       0.018 sec  (  0.4%)
SOSCF solution              ....       0.004 sec  (  0.1%)
Finished LeanSCF after   5.0 sec

Maximum memory used throughout the entire LEANSCF-calculation: 12.8 MB

-------------------------   --------------------
FINAL SINGLE POINT ENERGY      -959.617594115832
-------------------------   --------------------

------------------------------------------------------------------------------
                            ORCA SCF RESPONSE CALCULATION
------------------------------------------------------------------------------

GBWName                                 ... ch2cl2_b3lyp_def2tzvpp_pol.gbw
Number of atoms                         ...      5
Number of basis functions               ...    143
Max core memory                         ...  10000 MB

Electric field perturbation             ... YES
Quadrupolar field perturbation          ...  NO
Magnetic field perturbation (no GIAO)   ...  NO
Magnetic field perturbation (with GIAO) ...  NO
Linear momentum (velocity) perturbation ...  NO
Spin-orbit coupling perturbation        ...  NO
Choice of electric origin               ... Center of mass
Position of electric origin             ...    -0.000000     0.003635    -0.000001
Choice of magnetic origin               ... GIAO
Position of magnetic origin             ...     0.000000     0.000000     0.000000
Nuclear geometric perturbations         ...  NO (  15 perturbations)
Nucleus-orbit perturbations             ...  NO (   0 perturbations)
Spin-dipole/Fermi contact perturbations ...  NO (   0 perturbations)

Total number of real perturbations      ...      3
Total number of imaginary perturbations ...      0
Total number of triplet perturbations   ...      0
Total number of SOC perturbations       ...      0


                                **********************
                                * REAL PERTURBATIONS *
                                **********************



-------------------
SHARK CP-SCF DRIVER
-------------------

Dimension of the orbital basis          ...    143
Dimension of the CPSCF-problem          ...   2562
Number of operators                     ...      1
Max. number of iterations               ...    128
Convergence Tolerance                   ... 1.0e-03
Number of perturbations                 ...      3
Perturbation type                       ... REAL

----------------------------
POPLE LINEAR EQUATION SOLVER
----------------------------

  ITERATION   0:   ||err||_max =   4.4629e+00 (   0.4 sec   0/  3 done)
  ITERATION   1:   ||err||_max =   4.7594e-01 (   0.4 sec   0/  3 done)
  ITERATION   2:   ||err||_max =   7.5398e-02 (   0.4 sec   0/  3 done)
  ITERATION   3:   ||err||_max =   1.6028e-02 (   0.4 sec   0/  3 done)
  ITERATION   4:   ||err||_max =   3.6632e-03 (   0.4 sec   1/  3 done)
  ITERATION   5:   ||err||_max =   7.2686e-04 (   0.4 sec   3/  3 done)

CP-SCF equations solved in   2.5 sec
Response densities calculated in   0.0 sec

Maximum memory used throughout the entire SCFRESP-calculation: 14.2 MB

------------------------------------------------------------------------------
                              ORCA PROPERTY CALCULATIONS
------------------------------------------------------------------------------

GBWName                                 ... ch2cl2_b3lyp_def2tzvpp_pol.gbw
Number of atoms                         ...      5
Number of basis functions               ...    143
Max core memory                         ...  10000 MB

Electric properties:
Dipole moment                           ... YES
Quadrupole moment                       ...  NO
Static polarizability (Dipole/Dipole)   ... YES
Static polarizability (Dipole/Quad.)    ...  NO
Static polarizability (Quad./Quad.)     ...  NO
Static polarizability (Velocity)        ...  NO

Atomic electric properties:
Dipole moment                           ...  NO
Quadrupole moment                       ...  NO
Static polarizability                   ...  NO

Choice of electric origin               ... Center of mass
Position of electric origin             ...    -0.000000     0.003635    -0.000001

General magnetic properties:
Magnetizability                         ...  NO

EPR properties:
g-Tensor (aka g-matrix)                 ...  NO
Zero-Field splitting spin-orbit         ...  NO
Zero-field splitting spin-spin          ...  NO
Hyperfine couplings                     ...  NO (   0 nuclei)
Quadrupole couplings                    ...  NO (   0 nuclei)
Contact density                         ...  NO (   0 nuclei)

NMR properties:
Chemical shifts                         ...  NO (   0 nuclei)
Spin-rotation constants                 ...  NO (   0 nuclei)
Spin-spin couplings                     ...  NO (   0 nuclei,    0 pairs)

Choice of magnetic origin               ... GIAO
Position of magnetic origin             ...     0.000000     0.000000     0.000000

Properties with geometric perturbations:
SCF Hessian                             ...  NO
IR spectrum                             ...  NO
VCD spectrum                            ...  NO
X-ray spectroscopy properties:
SCF XES/XAS/RIXS spectra                ...  NO


-------------
DIPOLE MOMENT
-------------

Method             : SCF
Type of density    : Electron Density
Multiplicity       :   1
Irrep              :   0
Energy             :  -959.6175941158323894 Eh
Relativity type    : 
Basis              : AO
                                X                 Y                 Z
Electronic contribution:      0.000000821       2.480095902      -0.000006297
Nuclear contribution   :      0.000000000      -3.123555291       0.000007915
                        -----------------------------------------
Total Dipole Moment    :      0.000000822      -0.643459389       0.000001618
                        -----------------------------------------
Magnitude (a.u.)       :      0.643459389
Magnitude (Debye)      :      1.635543787



--------------------
Rotational spectrum 
--------------------
 
Rotational constants in cm-1:             1.081477             0.109444             0.101311 
Rotational constants in MHz :         32421.860555          3281.046129          3037.222065 

Dipole components along the rotational axes: 
x,y,z [a.u.] :     0.000001    -0.643459     0.000000 
x,y,z [Debye]:     0.000002    -1.635544     0.000001 

 

Dipole moment calculation done in   0.0 sec 


---------------------------------------------------
STATIC POLARIZABILITY TENSOR (Dipole/Dipole)
---------------------------------------------------

Method             : SCF
Type of density    : Electron Density
Type of derivative : Electric Field (Direction=X)
Multiplicity       :   1
Irrep              :   0
Relativity type    : 
Basis              : AO

The raw cartesian tensor (atomic units):
      48.424078250         0.000004835         0.000004577  
       0.000004835        32.822300583        -0.000007728  
       0.000004577        -0.000007728        27.482067656  
diagonalized tensor: 
      27.482067656        32.822300583        48.424078250  

Orientation: 
      -0.000000219        -0.000000310        -1.000000000  
       0.000001447         1.000000000        -0.000000310  
       1.000000000        -0.000001447        -0.000000219  

Isotropic polarizability :  36.24282


Polarizability tensor calculation done in   0.0 sec 

Maximum memory used throughout the entire PROP-calculation: 8.1 MB

--------------------------------
SUGGESTED CITATIONS FOR THIS RUN
--------------------------------

Below you find a list of papers that are relevant to this ORCA run
We neither can nor want to force you to cite these papers, but we appreciate if you do
You receive ORCA, which is the product of decades of hard work by many enthusiastic individuals, for free
The only thing we kindly ask in return is that you cite our papers,
We deeply appreciate it, if you show your appreciation for ORCA by not just citing the generic ORCA reference.

Please note that relegating all ORCA citations to the supporting information does *not* help us.
SI sections are not indexed - citations you put there will not count into any citation statistics
But we need these citations in order to attract the funding resources that allow us to do what we are doing

Therefore, if you are a happy ORCA user, please consider citing a few of the papers listed below in the main body of your paper

In addition to the list printed below, the program has created the file ch2cl2_b3lyp_def2tzvpp_pol.bibtex that contains the list in bibtex format
You can import this file easily into all common literature databanks and citation aid programs


List of essential papers. We consider these as the minimum necessary citations

  1. Neese,F.
     Software update: the ORCA program system, version 5.0
     WIRES Comput. Molec. Sci., 2022 12(1)e1606
     doi.org/10.1002/wcms.1606

List of papers to cite with high priority. The work reported in these papers was absolutely
necessary for this run to complete.
Our perspective: the developers of density functionals and basis sets usually get cited in chemistry papers
Good! But without the algorithms to do something with them, the functionals or basis sets would not do anything.
Hence, in our opinion, the algorithm design and method developments papers are equally worthy of getting cited

  1. Neese,F.
     An improvement of the resolution of the identity approximation for the formation of the Coulomb matrix
     J. Comp. Chem., 2003 24(14)1740-1747
     doi.org/10.1002/jcc.10318
  2. Neese,F.; Wennmohs,F.; Hansen,A.; Becker,U.
     Efficient, approximate and parallel Hartree-Fock and hybrid DFT calculations. A 'chain-of-spheres' algorithm for the Hartree-Fock exchange
     Chem. Phys., 2009 356(1-3)98-109
     doi.org/10.1016/j.chemphys.2008.10.036
  3. Helmich-Paris,B.; de Souza,B.; Neese,F.; Izsák,R.
     An improved chain of spheres for exchange algorithm
     J. Chem. Phys., 2021 155 104109
     doi.org/doi: 10.1063/5.0058766.
  4. Neese,F.
     The SHARK Integral Generation and Digestion System
     J. Comp. Chem., 2022  1-16
     doi.org/10.1002/jcc.26942

List of suggested additional citations. These are papers that are important in the 'surrounding' of 
of this run, or papers that preceded the highly important papers. If you like your results we are grateful for a citation.

  1. Izsak,R.; Neese,F.
     An overlap fitted chain of spheres exchange method
     J. Chem. Phys., 2011 135 144105
     doi.org/10.1063/1.3646921
  2. Izsak,R.; Hansen,A.; Neese,F.
     The resolution of identity and chain of spheres approximations for the LPNO-CCSD singles Fock term
     Molec. Phys., 2012 110 2413-2417
     doi.org/10.1080/00268976.2012.687466
  3. Neese,F.
     The ORCA program system
     WIRES Comput. Molec. Sci., 2012 2(1)73-78
     doi.org/10.1002/wcms.81
  4. Izsak,R.; Neese,F.; Klopper,W.
     Robust fitting techniques in the chain of spheres approximation to the Fock exchange: The role of the complementary space
     J. Chem. Phys., 2013 139 
     doi.org/10.1063/1.4819264
  5. Neese,F.
     Software update: the ORCA program system, version 4.0
     WIRES Comput. Molec. Sci., 2018 8(1)1-6
     doi.org/10.1002/wcms.1327
  6. Neese,F.; Wennmohs,F.; Becker,U.; Riplinger,C.
     The ORCA quantum chemistry program package
     J. Chem. Phys., 2020 152 Art. No. L224108
     doi.org/10.1063/5.0004608

List of optional additional citations

  1. Neese,F.
     Approximate second-order SCF convergence for spin unrestricted wavefunctions
     Chem. Phys. Lett., 2000 325(1-3)93-98
     doi.org/10.1016/s0009-2614(00)00662-x

Timings for individual modules:

Sum of individual times          ...        8.028 sec (=   0.134 min)
Startup calculation              ...        0.251 sec (=   0.004 min)   3.1 %
SCF iterations                   ...        5.157 sec (=   0.086 min)  64.2 %
SCF Response                     ...        2.554 sec (=   0.043 min)  31.8 %
Property calculations            ...        0.066 sec (=   0.001 min)   0.8 %
                             ****ORCA TERMINATED NORMALLY****
TOTAL RUN TIME: 0 days 0 hours 0 minutes 8 seconds 106 msec
