--invoking executable--
/usr/local/cfour/bin/xjoda


   *************************************************************************
         <<<     CCCCCC     CCCCCC   |||     CCCCCC     CCCCCC   >>>
       <<<      CCC        CCC       |||    CCC        CCC         >>>
      <<<      CCC        CCC        |||   CCC        CCC            >>>
    <<<        CCC        CCC        |||   CCC        CCC              >>>
      <<<      CCC        CCC        |||   CCC        CCC            >>>
       <<<      CCC        CCC       |||    CCC        CCC         >>>
         <<<     CCCCCC     CCCCCC   |||     CCCCCC     CCCCCC   >>>
   *************************************************************************

     ****************************************************************
     * CFOUR Coupled-Cluster techniques for Computational Chemistry *
     ****************************************************************


   Department of Chemistry                Institut fuer Physikalische Chemie
   University of Florida                  Universitaet Mainz
   Gainesville, FL 32611, USA             D-55099 Mainz, Germany

   Department of Chemistry                Fakultaet fuer Chemie und Biowiss.
   Johns Hopkins University               Karlsruher Institut fuer Technologie
   Baltimore, MD 21218, USA               D-76131 Karlsruhe, Germany

   Department of Chemistry                Department of Physical Chemistry
   Southern Methodist University          Eotvos Lorand University
   Dallas, TX 75275, USA                  H-1053 Budapest, Hungary


                       Version 2.1

                     andrey-ThinkPad-T490s                             
                     Di 15. Jul 18:11:26 CEST 2025                     
                     integer*8 version is running

********************************************************************************
*                          Input from ZMAT file                                *
********************************************************************************
ZMAT Geometry optimization CH2Cl2                                               
C                                                                               
H 1 B1                                                                          
H 1 B2 2 A2                                                                     
Cl 1 B3 2 A3 3 D3                                                               
Cl 1 B4 2 A4 3 D4                                                               
                                                                                
B1=1.0841314280                                                                 
B2=1.0841314294                                                                 
A2=112.0362834102                                                               
B3=1.7772771665                                                                 
A3=108.1518266217                                                               
D3=119.1037455344                                                               
B4=1.7772771665                                                                 
A4=108.1518266217                                                               
D4=-119.1037455344                                                              
                                                                                
*CFOUR(CALC=CCSD(T),BASIS=SPECIAL,FROZEN_CORE=ON                                
PROP=FIRST_ORDER,SCF_CONV=9,CC_CONV=9,LINEQ_CONV=9                              
CC_PROG=ECC,ABCDTYPE=AOBASIS                                                    
DIFF_TYPE=RELAXED,MEM_UNIT=GB,MEMORY=10)                                        
                                                                                
C:aug-cc-pVTZ                                                                   
H:aug-cc-pVTZ                                                                   
H:aug-cc-pVTZ                                                                   
CL:aug-cc-pVTZ                                                                  
CL:aug-cc-pVTZ                                                                  
                                                                                
********************************************************************************
    -------------------------------------------------------------------
                    CFOUR Control Parameters 
    -------------------------------------------------------------------
        External           Internal           Value            Units
          Name               Name
    -------------------------------------------------------------------
       ABCDTYPE             IABCDT         AOBASIS     [  2]    ***   
       ANHARMONIC           IANHAR         OFF         [  0]    ***   
       ANH_ALGORIT          IANALG         STANDARD    [  0]    ***   
       ANH_DERIVAT          IANDER         SECOND      [  1]    ***   
       ANH_MODE             ANHMOD         VIBRATION   [  0]    ***   
       ANH_STEPSIZ          ICUBST             50000          x 10-6  
       ANH_SYMMETR          IANHSM         ABELIAN     [  0]    ***   
       AO_LADDERS           IAOLAD         SINGLEPASS  [  1]    ***   
       AV_SCF               IAVSCF         OFF         [  0]    ***   
       BASIS                IBASIS         SPECIAL     [  0]    ***   
       BOTHVECTORS          BOTHVC         OFF         [  0]    ***   
       BOX_POTENT           IPIAB          OFF         [  0]    ***   
       BREIT                IBREIT         OFF         [  0]    ***   
       BRUCK_CONV           IBRTOL          10D-  4             ***   
       BRUECKNER            IBRKNR         OFF         [  0]    ***   
       BUFFERSIZE           IBUFFS              4096            ***   
       CACHE_RECS           ICHREC             10               ***   
       CALCLEVEL            ICLLVL         CCSD(T)     [ 22]    ***   
       CCORBOPT             ICCORB         OFF         [  0]  x 0.01  
       CC_CONV              ICCCNV          10D-  9             ***   
       CC_EXPORDER          ICCEOR              5               ***   
       CC_EXTRAPOL          ICCEXT         DIIS        [  1]    ***   
       CC_GUESS             ICCGES         MP2         [  0]    ***   
       CC_MAXCYC            ICCCYC            100              cycles 
       CC_PROGRAM           ICCPRO         ECC         [  1]    ***   
       CHARGE               ICHRGE              0               ***   
       CHOLESKY             ICHOLE         OFF         [  0]    ***   
       CIS_CONV             ICISTL              5               ***   
       COMM_SIZE            IPSIZE            ***               ***   
       CONSTANT             ICONST         OLD         [  1]    ***   
       CONTINUUM            ICONTU         NONE        [  0]    ***   
       CONTRACTION          ICNTYP         GENERAL     [  1]    ***   
       COORDINATES          ICOORD         INTERNAL    [  0]    ***   
       CPHF_CONVER          ICPHFT          10D- 16             ***   
       CPHF_MAXCYC          ICPHFC             64              cycles 
       CUBIC                ICUBIC         OFF         [  0]    ***   
       CURVILINEAR          ICURVY         OFF         [  0]    ***   
       DBOC                 IDBOC          OFF         [  0]    ***   
       DCT                  IDCT           OFF         [  0]    ***   
       DERIV_LEV            IDRLVL         FIRST       [  1]    ***   
       DEVMEM_SIZE          IDVMEM         *********           MByte  
       DIAG_MRCC            IEOMST          10D-  0             ***   
       DIFF_TYPE            IDIFTY         RELAXED     [  0]    ***   
       DIRECT               IDIRCT         OFF         [  0]    ***   
       DROPMO               IDRPMO      NONE         
       ECP                  IECP           OFF         [  0]    ***   
       EIGENVECTOR          IVEC                1               ***   
       EL_ANHARM            IELANH         OFF         [  0]    ***   
       EOMFOLLOW            IEOMSR         ENERGY      [  0]    ***   
       EOMIP                IEOMIP         OFF         [  0]    ***   
       EOMLEVEL             HBARFM         SAME        [  0]    ***   
       EOM_MRCC             IMRCCE         NEW         [  1]    ***   
       EOM_NONIT            EOMNON         OFF         [  0]    ***   
       EOM_NSING            IEOMSI          10D-  0             ***   
       EOM_NSTATES          IMRCCD         DAVIDSON    [  0]    ***   
       EOM_NTRIP            IEOMTR          10D-  0             ***   
       EOM_ORDER            IEXORD         ENERGY      [  0]    ***   
       EOM_PROPSTA          IEOMST              0               ***   
       ESTATE_CONV          IEXTOL          10D-  5             ***   
       ESTATE_DIAG          IEXDIG         ITERATIVE   [  0]    ***   
       ESTATE_LOCK          IESLOC         ON          [  1]    ***   
       ESTATE_MAXC          IEXMXC             40               ***   
       ESTATE_PROP          IEXPRP         OFF         [  0]    ***   
       EVAL_HESS            IRECAL              0            # of cyc.
       EXCITATION           IEXCIT              0               ***   
       EXCITE               IEXCIT         NONE        [  0]    ***   
       EXTERN_POT           IEXPOT         OFF         [  0]    ***   
       FCGRADNEW            IFCGNW         OFF         [  0]    ***   
       FC_FIELD             IFINFC              0             x 10-6  
       FD_CALTYPE           IFDCAL         GRADONLY    [  0]    ***   
       FD_PROJECT           IFDPRJ         OFF         [  1]    ***   
       FD_STEPSIZE          IDISFD              0            10-4 bohr
       FD_USEGROUP          IFDGRP         FULL        [  0]    ***   
       FILE_RECSIZ          IFLREC              4096           words  
       FINITE_PERT          IFIPER              0             x 10-6  
       FIXGEOM              IFIXGM         OFF         [  0]    ***   
       FOCK                 IFOCK          AO          [  1]    ***   
       FREQ_ALGORI          IVIALG         STANDARD    [  0]    ***   
       FROZEN_CORE          IFROCO         ON          [  1]    ***   
       GAMMA_ABCD           IGABCD         DIRECT      [  1]    ***   
       GAMMA_ABCI           IGABCI         STORE       [  0]    ***   
       GENBAS_1             IGNBS1              0               ***   
       GENBAS_2             IGNBS2              0               ***   
       GENBAS_3             IGNBS3              0               ***   
       GENBAS_4             IGNBS4              0               ***   
       GEO_CONV             ICONTL              5              H/bohr 
       GEO_MAXCYC           IOPTCY             50               ***   
       GEO_MAXSTEP          IMXSTP            300            millibohr
       GEO_METHOD           INR            SINGLE_POINT[  5]    ***   
       GIAO                 IGIAO          OFF         [  1]    ***   
       GIMIC                IGIMIC         OFF         [  0]    ***   
       GRID                 IGRID          OFF         [  0]    ***   
       GRID_ALGO            IGALGO         SERIAL      [  0]    ***   
       GUESS                IGUESS         MOREAD      [  0]    ***   
       HBAR                 IHBAR          OFF         [  0]    ***   
       HESS_TYPE            IHESTP         SCF         [  0]    ***   
       HF2_FILE             IHF2Fl         USE         [  1]    ***   
       HFSTABILITY          ISTABL         OFF         [  0]    ***   
       INCORE               INCORE         OFF         [  0]    ***   
       INPUT_MRCC           IMRCC          ON          [  1]    ***   
       INTEGRALS            INTTYP         VMOL        [  1]    ***   
       JODA_PRINT           IJPRNT              0               ***   
       KEYWORD_OUT          IDMPKW         NO          [  0]    ***   
       LINDEP_TOL           ILINDP              8               ***   
       LINEQ_CONV           IZTACN          10D-  9           cycles  
       LINEQ_EXPOR          ILMAXD              5               ***   
       LINEQ_MAXCY          ILMAXC            100               ***   
       LINEQ_TYPE           ILTYPE         DIIS        [  1]    ***   
       LOCK_ORBOCC          ILOCOC         OFF         [  0]    ***   
       MEMORY_SIZE          IMEMSZ         *********           words  
       MEM_UNIT             IMEMU          GB          [  3]    ***   
       MRCC                 IMRCCC         OFF         [  0]    ***   
       MULTIPLICTY          IMULTP              1               ***   
       NACOUPLING           IVCOUP         OFF         [  0]    ***   
       NEGEVAL              IDIE           ABORT       [  0]    ***   
       NEWNORM              INEWNO         OFF         [  0]    ***   
       NON-HF               INONHF         OFF         [  0]    ***   
       NTOP_TAMP            ITOPT2             15               ***   
       NUC_MODEL            INUCMO         POINT       [  0]    ***   
       OCCUPATION           IOCCU   ESTIMATED BY SCF 
       OPEN-SHELL           IOPEN          SPIN-ORBITAL[  0]    ***   
       OPTVIB               IOPTVB         OFF         [  0]    ***   
       ORBITALS             IORBTP         STANDARD    [  0]    ***   
       PARALLEL             IPARAL         ON          [  1]    ***   
       PARA_INT             IPINTS         ON          [  1]    ***   
       PARA_PRINT           IPPRIN              0               ***   
       PERT_ORB             IPTORB         CANONICAL   [  1]    ***   
       POINTS               IGRDFD              0               ***   
       PRINT                IPRNT               0               ***   
       PROPS                IPROPS         FIRST_ORDER [  1]    ***   
       PROP_INTEGR          IINTYP         INTERNAL    [  0]    ***   
       PSI                  IPSI           OFF         [  0]    ***   
       QC_ALG               IQCALG         FLM         [  0]    ***   
       QC_LINALG            IQCLIN         TRIDIAG     [  2]    ***   
       QC_MAXCYC            IQCMAX          10D-100           cycles  
       QC_MAXSCFCY          IQCMSC          10D- 15           cycles  
       QC_RTRUST            IQCRTR          10D-  0           x 10-3  
       QC_SKIPSCF           IQCSKI         OFF         [  0]    ***   
       QC_START             IQCSTA          10D-  1             ***   
       QRHFGUESS            IQGUES         OFF         [  0]    ***   
       QUARTIC              IQUART         OFF         [  0]    ***   
       RAMAN_INT            IRAMIN         OFF         [  0]    ***   
       RAMAN_ORB            IRAMRE         UNRELAXED   [  0]    ***   
       RDO                  IRDOFM         ON          [  1]    ***   
       REDUCE_REPR          REDREP         Ir          [  0]    ***   
       REFERENCE            IREFNC         RHF         [  0]    ***   
       RELATIVIST           IRELAT         OFF         [  0]    ***   
       RELAX_DENS           IRDENS         ON          [  1]    ***   
       RESET_FLAGS          IRESET         OFF         [  0]    ***   
       RESTART_CC           ICCRES         OFF         [  0]    ***   
       ROT_EVEC             ROTVEC              0               ***   
       SAVE_INTS            ISVINT         OFF         [  0]    ***   
       SCALE_ON             ISTCRT              0               ***   
       SCF_CONV             ISCFCV          10D-  9             ***   
       SCF_DAMPING          IDAMP               0             x 10-3  
       SCF_EXPORDE          IRPPOR              6               ***   
       SCF_EXPSTAR          IRPPLS              8               ***   
       SCF_EXTRAPO          IRPP           ON          [  1]    ***   
       SCF_MAXCYC           ISCFCY            150              cycles 
       SCF_NOSTOP           ISCFST         OFF         [  0]    ***   
       SCF_PRINT            ISCFPR              0               ***   
       SCF_PROG             ISCFPR         SCF         [  0]    ***   
       SD_FIELD             IFINSD              0             x 10-6  
       SOPERT               IPERSO         OFF         [  0]    ***   
       SPHERICAL            IDFGHI         ON          [  1]    ***   
       SPINORBIT            ISOCAL         OFF         [  0]    ***   
       SPINROTATIO          ISRCON         OFF         [  0]    ***   
       SPIN_FLIP            ISPFLP         OFF         [  0]    ***   
       SPIN_ORBIT           ISPORB         OFF         [  0]    ***   
       SPIN_SCAL            ISCSMP         OFF         [  0]    ***   
       STEEPSCALE           ISTPSC              1000          x 10-3  
       SUBGROUP             ISUBGP         DEFAULT     [  0]    ***   
       SUBGRPAXIS           ISBXYZ         X           [  0]    ***   
       SYMMETRY             ISYM           ON          [  0]    ***   
       SYM_CHECK            ISYMCK         OVERRIDE    [  1]    ***   
       T3_EXTRAPOL          IT3EXT         OFF         [  0]    ***   
       T4_EXTRAPOL          IT4EXP         OFF         [  0]    ***   
       TAMP_SUM             IEVERY              5               ***   
       TESTSUITE            ITESTS         OFF         [  0]    ***   
       THERMOCH             ITHERM         OFF         [  0]    ***   
       TOL_CHOLESK          ITOLCH          10D-  4             ***   
       TRANGRAD             IRESRM         OFF         [  0]    ***   
       TRANS_INV            ITRAIN         USE         [  0]    ***   
       TREAT_PERT           ITREAT         SIMULTANEOUS[  0]    ***   
       TRIP_ALGORI          ITRALG         NORMAL      [  0]    ***   
       UIJ_THRESHO          IUIJTH              1               ***   
       UNITS                IUNITS         ANGSTROM    [  0]    ***   
       UNOS                 IUNOS          OFF         [  0]    ***   
       UPDATE_HESS          IHUPDT         ON          [  1]    ***   
       VIBPHASE             ISETPH         STANDARD    [  0]    ***   
       VIBRATION            IVIB           NO          [  0]    ***   
       VIB_ALGORIT          IGEALG         STANDARD    [  0]    ***   
       VNATORB              IVNORB         OFF         [  0]    ***   
       VTRAN                IVTRAN         PARTIAL     [  2]    ***   
       XFIELD               IXEFLD              0             x 10-6  
       XFORM_TOL            IXFTOL          10D- 11             ***   
       YFIELD               IYEFLD              0             x 10-6  
       ZFIELD               IZEFLD              0             x 10-6  
       ZSCALE_EXP           IZEXPS         OFF         [  0]    ***   
    -------------------------------------------------------------------
   5 entries found in Z-matrix 
   Job Title : ZMAT Geometry optimization CH2Cl2                                               
   There are  9 unique internal coordinates.
   Of these,  0 will be optimized.
   User supplied Z-matrix: 
--------------------------------------------------------------------------------
       SYMBOL    BOND      LENGTH    ANGLE     ANGLE     DIHED     ANGLE
                  TO      (ANGST)    WRT      (DEG)      WRT      (DEG)
--------------------------------------------------------------------------------
        C    
        H          1         B1   
        H          1         B2         2        A2   
        Cl         1         B3         2        A3         3        D3   
        Cl         1         B4         2        A4         3        D4   
                  *Initial values for internal coordinates* 
                      Name             Value
                        B1              1.0841314280
                        B2              1.0841314294
                        A2            112.0362834102
                        B3              1.7772771665
                        A3            108.1518266217
                        D3            119.1037455344
                        B4              1.7772771665
                        A4            108.1518266217
                        D4           -119.1037455344
--------------------------------------------------------------------------------
  filter applied 
  filter applied 
   Rotational constants (in cm-1): 
          0.1012605801             0.1095286053             1.0652597270
   Rotational constants (in MHz): 
       3035.7162456205          3283.5854400007         31935.6876711482
********************************************************************************
   The full molecular point group is C2v .
   The largest Abelian subgroup of the full molecular point group is C2v .
   The computational point group is C2v .
********************************************************************************
--------------------------------------------------------------------------------
   Analysis of internal coordinates specified by Z-matrix 
--------------------------------------------------------------------------------
   *The nuclear repulsion energy is  134.007838159065898 a.u.
  *WARNING* Parameters A3    and A4    appear to be equivalent.
  *WARNING* Parameters B1    and B2    appear to be equivalent.
  *WARNING* Parameters B3    and B4    appear to be equivalent.
   *There are   4 degrees of freedom within the tot. symm. molecular subspace.
   *Z-matrix requests optimization of   0 coordinates.
   *The optimization is constrained.
   *The following   5 parameters can have non-zero 
    derivatives within the totally symmetric subspace:
             A2   [ 3]  A3   [ 5]  D3   [ 6]  B1   [ 1]  B3   [ 4]
   *The following   0 parameters are to be optimized:

   *The following coordinates must be varied in an  unconstrained optimization.
             A2   [ 3]  A3   [ 5]  D3   [ 6]  B1   [ 1]  B3   [ 4]
--------------------------------------------------------------------------------


 ----------------------------------------------------------------
         Coordinates used in calculation (QCOMP) 
 ----------------------------------------------------------------
 Z-matrix   Atomic            Coordinates (in bohr)
  Symbol    Number           X              Y              Z
 ----------------------------------------------------------------
     C         6        -0.00000000     0.00000000     1.53198123
     H         1        -1.69882181     0.00000000     2.67706854
     H         1         1.69882181     0.00000000     2.67706854
     CL       17         0.00000000    -2.78847826    -0.34001413
     CL       17         0.00000000     2.78847826    -0.34001413
 ----------------------------------------------------------------

   Interatomic distance matrix (Angstroms) 

                 C             H             H             CL            CL   
                [ 1]        [ 2]        [ 3]        [ 4]        [ 5]
  C    [ 1]     0.00000
  H    [ 2]     1.08413     0.00000
  H    [ 3]     1.08413     1.79796     0.00000
  CL   [ 4]     1.77728     2.35257     2.35257     0.00000
  CL   [ 5]     1.77728     2.35257     2.35257     2.95120     0.00000
 rotcon2
   Rotational constants (in cm-1): 
          0.1012605801             1.0652597270             0.1095286053
   Rotational constants (in MHz): 
       3035.7162456205         31935.6876711483          3283.5854400007
  ECPDATA file not present.   Using default ECPDATA. 
  There are  11 frozen-core orbitals.
  There are  192 basis functions.
 @CHECKOUT-I, Total execution time (CPU/WALL):        1.09/       0.20 seconds.
--executable xjoda finished with status     0 in        0.22 seconds (walltime).
 --invoking executable--
/usr/local/cfour/bin/xvmol
 SERIAL VERSION OF MOLECULE STARTED
********************************************************************************
                    INPUT FROM MOL FILE
********************************************************************************
INTGRL        1    0    1    0    0    0    0    0    0                         
         *** CFOUR Program System (Release V0.1) ***                            
ZMAT Geometry optimization CH2Cl2                                               
    3    2 X  Y       0.10E-08              0    0                              
   9999.00      3.00                                                            
          6.00000000    1    4    1    1    1    1                              
C #1  -0.000000000357593   0.000000000000000   1.531981225839361                
   11    5                                                                      
   8236.0000000000000        5.3100000000000000E-004   0.0000000000000000       
   1235.0000000000000        4.1079999999999997E-003   0.0000000000000000       
   280.80000000000001        2.1087000000000002E-002   0.0000000000000000       
   79.269999999999996        8.1852999999999995E-002   0.0000000000000000       
   25.590000000000000       0.23481700000000000        0.0000000000000000       
   8.9969999999999999       0.43440099999999998        0.0000000000000000      -
   3.3190000000000000       0.34612900000000002        0.0000000000000000      -
  0.90590000000000004        3.9378000000000003E-002   1.0000000000000000       
  0.36430000000000001       -8.9829999999999997E-003   0.0000000000000000       
  0.12850000000000000        2.3850000000000000E-003   0.0000000000000000       
   4.4019999999999997E-002   0.0000000000000000        0.0000000000000000       
    6    4                                                                      
   18.710000000000001        0.0000000000000000        1.4031000000000000E-002  
   4.1330000000000000        0.0000000000000000        8.6865999999999999E-002  
   1.2000000000000000        0.0000000000000000       0.29021599999999997       
  0.38269999999999998        1.0000000000000000       0.50100800000000001       
  0.12089999999999999        0.0000000000000000       0.34340599999999999       
   3.5690000000000000E-002   0.0000000000000000        0.0000000000000000       
    3    3                                                                      
   1.0970000000000000        1.0000000000000000        0.0000000000000000       
  0.31800000000000000        0.0000000000000000        1.0000000000000000       
  0.10000000000000001        0.0000000000000000        0.0000000000000000       
    2    2                                                                      
  0.76100000000000001        1.0000000000000000        0.0000000000000000       
  0.26800000000000002        0.0000000000000000        1.0000000000000000       
          1.00000000    1    3    1    1    1                                   
H #2  -1.698821806225972   0.000000000000000   2.677068544667086                
    6    4                                                                      
   33.869999999999997        0.0000000000000000        6.0679999999999996E-003  
   5.0949999999999998        0.0000000000000000        4.5308000000000001E-002  
   1.1590000000000000        0.0000000000000000       0.20282200000000000       
  0.32579999999999998        1.0000000000000000       0.50390299999999999       
  0.10270000000000000        0.0000000000000000       0.38342100000000001       
   2.5260000000000001E-002   0.0000000000000000        0.0000000000000000       
    3    3                                                                      
   1.4070000000000000        1.0000000000000000        0.0000000000000000       
  0.38800000000000001        0.0000000000000000        1.0000000000000000       
  0.10199999999999999        0.0000000000000000        0.0000000000000000       
    2    2                                                                      
   1.0569999999999999        1.0000000000000000        0.0000000000000000       
  0.24700000000000000        0.0000000000000000        1.0000000000000000       
         17.00000000    1    4    1    1    1    1                              
CL#3   0.000000000011116  -2.788478263635090  -0.340014130542707                
   16    6                                                                      
   456100.00000000000        4.9296999999999999E-005  -1.3830400000000001E-005  
   68330.000000000000        3.8302900000000001E-004  -1.0727900000000000E-004  
   15550.000000000000        2.0085400000000001E-003  -5.6508299999999997E-004  
   4405.0000000000000        8.3855800000000001E-003  -2.3613499999999999E-003  
   1439.0000000000000        2.9470300000000001E-002  -8.4588600000000003E-003  
   520.39999999999998        8.7832499999999994E-002  -2.5963799999999999E-002  
   203.09999999999999       0.21147299999999999       -6.8636199999999994E-002  
   83.959999999999994       0.36536400000000002      -0.14187400000000000       
   36.200000000000003       0.34088400000000002      -0.19931900000000000       
   15.830000000000000       0.10213300000000000       -1.9566199999999999E-002  
   6.3339999999999996        3.1167500000000002E-003  0.49974099999999999       
   2.6940000000000000        1.0575100000000000E-003  0.56373600000000001       
  0.97680000000000000       -3.7800000000000003E-004   7.9032500000000006E-002  
  0.43130000000000002        1.5613600000000000E-004  -8.3509099999999996E-003  
  0.16250000000000001       -5.1412600000000003E-005   2.3245599999999998E-003  
   5.9100000000000000E-002   0.0000000000000000        0.0000000000000000       
   10    5                                                                      
   663.29999999999995        2.4044800000000001E-003   0.0000000000000000       
   156.80000000000001        1.9214800000000001E-002   0.0000000000000000       
   49.979999999999997        8.8509699999999997E-002   0.0000000000000000       
   18.420000000000002       0.25602000000000003        0.0000000000000000       
   7.2400000000000002       0.43692700000000001        0.0000000000000000      -
   2.9220000000000002       0.35033399999999998        0.0000000000000000       
   1.0220000000000000        5.8549499999999997E-002   1.0000000000000000       
  0.38179999999999997       -4.5842299999999999E-003   0.0000000000000000       
  0.13009999999999999        2.2696999999999999E-003   0.0000000000000000       
   4.1900000000000000E-002   0.0000000000000000        0.0000000000000000       
    3    3                                                                      
   1.0460000000000000        1.0000000000000000        0.0000000000000000       
  0.34399999999999997        0.0000000000000000        1.0000000000000000       
  0.13500000000000001        0.0000000000000000        0.0000000000000000       
    2    2                                                                      
  0.70599999999999996        1.0000000000000000        0.0000000000000000       
  0.31200000000000000        0.0000000000000000        1.0000000000000000       
FINISH                                                                          

********************************************************************************

OMP_NUM_THREADS not specified; defaulting to 1
Running with 1 threads/proc

 ONE- AND TWO-ELECTRON INTEGRALS OVER SYMMETRY-ADAPTED AOS ARE CALCULATED.

  SPHERICAL HARMONICS ARE USED.
  
  INTEGRALS LESS THAN  0.10E-13 ARE NEGLECTED.

  NUCLEAR REPULSION ENERGY :  134.0078381637 A.U.
  @MOLECU-I, ONE ELECTRON INTEGRALS (CPU/WALL):        0.45/       0.07 SECONDS.
  @TWOEL-I,    4026045 INTEGRALS OF SYMMETRY TYPE  I I I I
  @TWOEL-I,   16177008 INTEGRALS OF SYMMETRY TYPE  I J I J
  @TWOEL-I,    8403081 INTEGRALS OF SYMMETRY TYPE  I I J J
  @TWOEL-I,   12772262 INTEGRALS OF SYMMETRY TYPE  I J K L
  @TWOEL-I, TOTAL NUMBER OF 2-E INTEGRALS   41378396.
  @MOLECU-I, TWO ELECTRON INTEGRALS (CPU/WALL):      132.43/      16.65 SECONDS.
 @CHECKOUT-I, Total execution time (CPU/WALL):      132.93/      16.72 seconds.
Note: The following floating-point exceptions are signalling: IEEE_UNDERFLOW_FLAG IEEE_DENORMAL
--executable xvmol finished with status     0 in       16.73 seconds (walltime).
 --invoking executable--
/usr/local/cfour/bin/xvmol2ja
 @GETMEM-I,  Allocated    9536 MB of main memory.
 @CHECKOUT-I, Total execution time (CPU/WALL):        0.20/       0.03 seconds.
--executable xvmol2ja finished with status     0 in        0.04 seconds (walltime).
 --invoking executable--
/usr/local/cfour/bin/xvprop
 @GETMEM-I,  Allocated    9536 MB of main memory.
   Property integrals will be calculated.
    --------------------------------------------------------------
                                   Property evaluated at 
    Property type                X             Y             Z
    --------------------------------------------------------------
    Dipole moment               ----          ----          ----  
    Quadrupole moment           ----          ----          ----  
    Octopole moment             ----          ----          ----  
    Relativisitic corr.         ----          ----          ----  
    Second moment            0.0000000     0.0000000     0.0000000
    Electron density        -0.0000000     0.0000000     1.5319812
    Electron density        -1.6988218     0.0000000     2.6770685
    Electron density         1.6988218     0.0000000     2.6770685
    Electron density         0.0000000    -2.7884783    -0.3400141
    Electron density         0.0000000     2.7884783    -0.3400141
    Field gradient          -0.0000000     0.0000000     1.5319812
    Field gradient          -1.6988218     0.0000000     2.6770685
    Field gradient           1.6988218     0.0000000     2.6770685
    Field gradient           0.0000000    -2.7884783    -0.3400141
    Field gradient           0.0000000     2.7884783    -0.3400141
    Potential               -0.0000000     0.0000000     1.5319812
    Potential               -1.6988218     0.0000000     2.6770685
    Potential                1.6988218     0.0000000     2.6770685
    Potential                0.0000000    -2.7884783    -0.3400141
    Potential                0.0000000     2.7884783    -0.3400141
    --------------------------------------------------------------
 @CHECKOUT-I, Total execution time (CPU/WALL):        3.19/       2.28 seconds.
Note: The following floating-point exceptions are signalling: IEEE_UNDERFLOW_FLAG IEEE_DENORMAL
--executable xvprop finished with status     0 in        2.29 seconds (walltime).
 --invoking executable--
/usr/local/cfour/bin/xvscf
  There are  192 functions in the AO basis.

  There are 4 irreducible representations.

       Irrep        # of functions
         1                 68
         2                 44
         3                 51
         4                 29


  Parameters for SCF calculation: 
        SCF reference function:  RHF  
  Maximum number of iterations:  150
     Full symmetry point group: C2v 
     Computational point group: C2v 
        Initial density matrix: MOREAD                 
     SCF convergence tolerance: 10**(- 9)
  DIIS convergence acceleration:  ON
          Latest start for DIIS:   8
                     DIIS order:   6

  Memory information:    1653644 words required.
  Fock matrices are constructed from AO integral file.
 @GETMEM-I,  Allocated      12 MB of main memory.
  Initialization and symmetry analysis required      0.017 seconds.

  @INITGES-I, Occupancies from core Hamiltonian:

          Alpha population by irrep:   9    2    8    2
           Beta population by irrep:   9    2    8    2


 total no. of electrons in initial guess :   0.0000000000000000     
  --------------------------------------------------------------------
  Iteration         Total Energy            Largest Density Difference
  --------------------------------------------------------------------
       0           134.007838163675785              0.0000000000D+00
   current occupation vector 
     9  2  8  2
     9  2  8  2
       1          -906.771814914035986              0.1103973748D+03
   current occupation vector 
     9  2  8  2
     9  2  8  2
       2          -920.403348207826184              0.1028478456D+03
   current occupation vector 
    10  3  6  2
    10  3  6  2
       3          -938.334275959109391              0.1239160327D+02
   current occupation vector 
     9  3  7  2
     9  3  7  2
       4          -918.587191104991007              0.7589066500D+01
   current occupation vector 
    10  3  6  2
    10  3  6  2
       5          -938.473609728573138              0.7596288281D+01
   current occupation vector 
     9  3  7  2
     9  3  7  2
       6          -923.023241427882340              0.9211099137D+01
   current occupation vector 
    10  3  7  1
    10  3  7  1
       7          -939.604532875631321              0.9212519724D+01
   current occupation vector 
     9  2  8  2
     9  2  8  2
       8          -923.942792923448906              0.9372327008D+01
   current occupation vector 
    10  3  7  1
    10  3  7  1
       9          -956.073984831485404              0.7847779573D+01
   current occupation vector 
     9  3  7  2
     9  3  7  2
      10          -957.993525114506156              0.7452476231D+00
   current occupation vector 
     9  3  7  2
     9  3  7  2
      11          -958.073182678210287              0.1815593885D+00
   current occupation vector 
     9  3  7  2
     9  3  7  2
      12          -958.077694127068071              0.3344416870D-01
   current occupation vector 
     9  3  7  2
     9  3  7  2
      13          -958.079004830062104              0.2913638056D-01
   current occupation vector 
     9  3  7  2
     9  3  7  2
      14          -958.079100732300958              0.4583000152D-02
   current occupation vector 
     9  3  7  2
     9  3  7  2
      15          -958.079108490948556              0.1236184039D-02
   current occupation vector 
     9  3  7  2
     9  3  7  2
      16          -958.079110026709031              0.6131092375D-03
   current occupation vector 
     9  3  7  2
     9  3  7  2
      17          -958.079110138036867              0.1973345207D-03
   current occupation vector 
     9  3  7  2
     9  3  7  2
      18          -958.079110140916555              0.2691116386D-04
   current occupation vector 
     9  3  7  2
     9  3  7  2
      19          -958.079110141044794              0.1402746072D-04
   current occupation vector 
     9  3  7  2
     9  3  7  2
      20          -958.079110141052297              0.2793715991D-05
   current occupation vector 
     9  3  7  2
     9  3  7  2
      21          -958.079110141055935              0.1096620283D-05
   current occupation vector 
     9  3  7  2
     9  3  7  2
      22          -958.079110141049341              0.2402295577D-06
   current occupation vector 
     9  3  7  2
     9  3  7  2
      23          -958.079110141057072              0.4323322589D-07
   current occupation vector 
     9  3  7  2
     9  3  7  2
      24          -958.079110141056162              0.1717587561D-07
   current occupation vector 
     9  3  7  2
     9  3  7  2
      25          -958.079110141054343              0.2778199892D-08
   current occupation vector 
     9  3  7  2
     9  3  7  2
      26          -958.079110141050478              0.1080020517D-08
   current occupation vector 
     9  3  7  2
     9  3  7  2

  SCF has converged.

 Density matrix saved to file den.dat
 total electron number:   42.000000000000142     
     E(SCF)=      -958.079110141054343              0.6718010592D-09


  Final occupancies:

     Alpha population by irrep:   9    3    7    2
      Beta population by irrep:   9    3    7    2


  Eigenvector printing suppressed.

 @PUTMOS-I, Writing converged MOs to NEWMOS. 
 @PUTMOS-I, Symmetry   1 Full Blocks 17 Partial Blocksize   0
 @PUTMOS-I, Symmetry   2 Full Blocks 11 Partial Blocksize   0
 @PUTMOS-I, Symmetry   3 Full Blocks 12 Partial Blocksize   3
 @PUTMOS-I, Symmetry   4 Full Blocks  7 Partial Blocksize   1
 @PUTFOCK-I, Writing converged Fock matrix to NEWFOCK. 
 @PUTFOCK-I, Symmetry   1 Full Blocks 17 Partial Blocksize   0
 @PUTFOCK-I, Symmetry   2 Full Blocks 11 Partial Blocksize   0
 @PUTFOCK-I, Symmetry   3 Full Blocks 12 Partial Blocksize   3
 @PUTFOCK-I, Symmetry   4 Full Blocks  7 Partial Blocksize   1



  ORBITAL EIGENVALUES (ALPHA)  (1H = 27.2113834 eV)

       MO #        E(hartree)               E(eV)           FULLSYM    COMPSYM
       ----   --------------------   --------------------   -------   ---------
    1   113        -104.8504325985       -2853.1253210935      E         B2 (3)
    2     1        -104.8504323810       -2853.1253151764      E         A1 (1)
    3     2         -11.3679789974        -309.3384349802      A1        A1 (1)
    4   114         -10.5746822216        -287.7517322642      E         B2 (3)
    5     3         -10.5746745379        -287.7515231801      E         A1 (1)
    6     4          -8.0415154825        -218.8207609113      E         A1 (1)
    7   115          -8.0415140427        -218.8207217315      E         B2 (3)
    8     5          -8.0395702139        -218.7678274605      E         A1 (1)
    9   116          -8.0395696708        -218.7678126826      E         B2 (3)
   10   164          -8.0394781928        -218.7653234410      E         A2 (4)
   11    69          -8.0394777614        -218.7653117020      E         B1 (2)
   12     6          -1.1907503924         -32.4019654614      A1        A1 (1)
   13   117          -1.0958914878         -29.8207234400      B2        B2 (3)
   14     7          -0.8973754692         -24.4188279467      A1        A1 (1)
   15    70          -0.6774799843         -18.4351675989      B1        B1 (2)
   16     8          -0.6150877726         -16.7373892046      A1        A1 (1)
   17   118          -0.5838017743         -15.8860539089      B2        B2 (3)
   18   165          -0.4740294779         -12.8989978654      A2        A2 (4)
   19     9          -0.4713995768         -12.8274346182      A1        A1 (1)
   20   119          -0.4480810618         -12.1929055673      B2        B2 (3)
   21    71          -0.4473462065         -12.1729091371      B1        B1 (2)
  +++++++++++++++++++++++++++++++++++++++++++++++++++++++++++++++++++++++++++++
   22    10           0.0292888891           0.7969911920      A1        A1 (1)
   23    72           0.0425563172           1.1580162626      B1        B1 (2)
   24    11           0.0641604303           1.7458940676      A1        A1 (1)
   25   120           0.0668209312           1.8182899782      B2        B2 (3)
   26    12           0.1129617585           3.0738457201      A1        A1 (1)
   27   121           0.1140300929           3.1029165778      B2        B2 (3)
   28    13           0.1205194503           3.2795009687      A1        A1 (1)
   29   166           0.1328536588           3.6151318449      A2        A2 (4)
   30    73           0.1329980782           3.6190616964      B1        B1 (2)
   31    14           0.1336056591           3.6355948139      A1        A1 (1)
   32    74           0.1448344079           3.9411446019      B1        B1 (2)
   33   122           0.1610332430           4.3819373166      B2        B2 (3)
   34    15           0.1865405009           5.0760250898      A1        A1 (1)
   35   123           0.2031702705           5.5285441272      B2        B2 (3)
   36    16           0.2309893948           6.2855409840      A1        A1 (1)
   37    75           0.2366110837           6.4385149151      B1        B1 (2)
   38   124           0.2662440686           7.2448694299      B2        B2 (3)
   39   167           0.2687916026           7.3141913534      A2        A2 (4)
   40    17           0.2727746654           7.4225760019      A1        A1 (1)
   41    76           0.3222074014           8.7677091332      B1        B1 (2)
   42   125           0.3247975260           8.8381900078      B2        B2 (3)
   43    18           0.3276866150           8.9168061160      A1        A1 (1)
   44    19           0.3539932814           9.6326469018      A1        A1 (1)
   45    77           0.3600175458           9.7965754682      B1        B1 (2)
   46   126           0.3733912396          10.1604921787      B2        B2 (3)
   47    20           0.3871994081          10.5362315454      A1        A1 (1)
   48    21           0.4112330337          11.1902197458      A1        A1 (1)
   49    78           0.4220567577          11.4847482501      B1        B1 (2)
   50   168           0.4342487627          11.8165095723      A2        A2 (4)
   51    79           0.4353924002          11.8476295312      B1        B1 (2)
   52   169           0.4563917826          12.4190517778      A2        A2 (4)
   53   127           0.4564424191          12.4204296674      B2        B2 (3)
   54    22           0.4639979063          12.6260249257      A1        A1 (1)
   55   128           0.4905858897          13.3495207355      B2        B2 (3)
   56   170           0.5044788094          13.7275662985      A2        A2 (4)
   57    23           0.5126739989          13.9505687424      A1        A1 (1)
   58    80           0.5191618467          14.1271120572      B1        B1 (2)
   59   129           0.5525632494          15.0360104326      B2        B2 (3)
   60    24           0.5544956806          15.0885945579      A1        A1 (1)
   61   130           0.6962624400          18.9462642014      B2        B2 (3)
   62    81           0.6982047748          18.9991178178      B1        B1 (2)
   63    25           0.6995516503          19.0357681647      A1        A1 (1)
   64    26           0.7210335182          19.6203195092      A1        A1 (1)
   65   131           0.7513948835          20.4464942591      B2        B2 (3)
   66    27           0.7666176513          20.8607268295      A1        A1 (1)
   67    82           0.7789458742          21.1961948320      B1        B1 (2)
   68   132           0.8247163188          22.4416719458      B2        B2 (3)
   69    83           0.8376450093          22.7934795014      B1        B1 (2)
   70   171           0.8408674075          22.8811654142      A2        A2 (4)
   71    28           0.8477384560          23.0681361500      A1        A1 (1)
   72    84           0.8719830407          23.7278648378      B1        B1 (2)
   73   133           0.8932241680          24.3058652989      B2        B2 (3)
   74   172           0.8985054366          24.4495759223      A2        A2 (4)
   75    29           0.8987893375          24.4573012586      A1        A1 (1)
   76    85           0.9130295645          24.8447975340      B1        B1 (2)
   77    30           0.9363101608          25.4782947657      A1        A1 (1)
   78   134           0.9485344093          25.8109334800      B2        B2 (3)
   79   173           0.9539755909          25.9589955588      A2        A2 (4)
   80    31           0.9677212455          26.3330338360      A1        A1 (1)
   81   174           1.0055486410          27.3623695964      A2        A2 (4)
   82   135           1.0202855924          27.7633824331      B2        B2 (3)
   83    86           1.0414700454          28.3398407060      B1        B1 (2)
   84    32           1.0418791976          28.3509743031      A1        A1 (1)
   85    33           1.0677331442          29.0544959568      A1        A1 (1)
   86   136           1.0871190479          29.5820132140      B2        B2 (3)
   87    87           1.0879899532          29.6057117509      B1        B1 (2)
   88   175           1.0941223921          29.7725838988      A2        A2 (4)
   89    34           1.1110202149          30.2323970329      A1        A1 (1)
   90    88           1.1169787675          30.3945374922      B1        B1 (2)
   91   137           1.1294186732          30.7330445351      B2        B2 (3)
   92    35           1.1445394477          31.1445017276      A1        A1 (1)
   93   176           1.2000093576          32.6539147119      A2        A2 (4)
   94    36           1.2282862550          33.4233682109      A1        A1 (1)
   95    89           1.2513117622          34.0499241143      B1        B1 (2)
   96   138           1.2600644625          34.2880971974      B2        B2 (3)
   97   177           1.2971540586          35.2973564183      A2        A2 (4)
   98   139           1.3566508291          36.9163458495      B2        B2 (3)
   99    37           1.3644221056          37.1278130362      A1        A1 (1)
  100    90           1.4000707014          38.0978606424      B1        B1 (2)
  101    38           1.4570836336          39.6492613988      A1        A1 (1)
  102   178           1.4972223266          40.7414907648      A2        A2 (4)
  103   140           1.5052399604          40.9596616713      B2        B2 (3)
  104    91           1.5395749131          41.8939632328      B1        B1 (2)
  105    39           1.5508630563          42.2011292265      A1        A1 (1)
  106   141           1.5690561053          42.6961872562      B2        B2 (3)
  107    40           1.6181887656          44.0331549139      A1        A1 (1)
  108    92           1.6837001296          45.8158097562      B1        B1 (2)
  109    93           1.7153231536          46.6763159876      B1        B1 (2)
  110    41           1.7223303452          46.8669913652      A1        A1 (1)
  111   179           1.7242830343          46.9201267366      A2        A2 (4)
  112   142           1.7333265099          47.1662122189      B2        B2 (3)
  113   143           1.7487748310          47.5865824072      B2        B2 (3)
  114    42           1.7571053718          47.8132679462      A1        A1 (1)
  115    94           1.8234462790          49.6184958068      B1        B1 (2)
  116   144           1.8376430990          50.0048109182      B2        B2 (3)
  117    43           1.9037792805          51.8044679098      A1        A1 (1)
  118    44           1.9270213177          52.4369158959      A1        A1 (1)
  119    95           1.9272426667          52.4429391078      B1        B1 (2)
  120   180           1.9325953743          52.5885936859      A2        A2 (4)
  121   145           1.9407100593          52.8094054920      B2        B2 (3)
  122    96           2.0295262147          55.2262159480      B1        B1 (2)
  123   181           2.0988734466          57.1132500646      A2        A2 (4)
  124    45           2.1365501029          58.1384840026      A1        A1 (1)
  125   146           2.2086106036          60.0993499154      B2        B2 (3)
  126    46           2.4538018192          66.7713420896      A1        A1 (1)
  127    47           2.5749454968          70.0678291481      A1        A1 (1)
  128   147           2.5917412548          70.5248649589      B2        B2 (3)
  129   182           2.5931366958          70.5628368390      A2        A2 (4)
  130    97           2.6307352684          71.5859460118      B1        B1 (2)
  131    48           2.6435127598          71.9336392284      A1        A1 (1)
  132   148           2.6539366656          72.2172881275      B2        B2 (3)
  133    98           2.6656884627          72.5370707822      B1        B1 (2)
  134   183           2.7013018915          73.5061614487      A2        A2 (4)
  135   149           2.7111041093          73.7728933542      B2        B2 (3)
  136    49           2.7267182179          74.1977748504      A1        A1 (1)
  137   184           2.8788443218          78.3373365898      A2        A2 (4)
  138   150           2.9222918705          79.5196044951      B2        B2 (3)
  139    50           2.9276181335          79.6645394782      A1        A1 (1)
  140    99           2.9653002747          80.6899226721      B1        B1 (2)
  141    51           3.0253813639          82.3248122249      A1        A1 (1)
  142   151           3.0334916486          82.5455042921      B2        B2 (3)
  143   100           3.0500318096          82.9955849540      B1        B1 (2)
  144   152           3.0508099481          83.0167591771      B2        B2 (3)
  145   185           3.0744211070          83.6592514755      A2        A2 (4)
  146    52           3.1012512013          84.3893354573      A1        A1 (1)
  147   153           3.1026207662          84.4266032136      B2        B2 (3)
  148    53           3.1482665420          85.6686879205      A1        A1 (1)
  149   101           3.1644411765          86.1088221007      B1        B1 (2)
  150   154           3.1773114573          86.4590402469      B2        B2 (3)
  151   186           3.1874531997          86.7350110867      A2        A2 (4)
  152   102           3.1938670559          86.9095409868      B1        B1 (2)
  153    54           3.2025534047          87.1459085536      A1        A1 (1)
  154    55           3.2552213294          88.5790756462      A1        A1 (1)
  155   187           3.2871732426          89.4485314068      A2        A2 (4)
  156   155           3.3097203657          90.0620698173      B2        B2 (3)
  157    56           3.4055473022          92.6696533272      A1        A1 (1)
  158   103           3.4332651042          93.4238930634      B1        B1 (2)
  159   156           3.5890307965          97.6624930368      B2        B2 (3)
  160   188           3.5977837549          97.9006731460      A2        A2 (4)
  161   104           3.5996261632          97.9508076227      B1        B1 (2)
  162    57           3.6388588388          99.0183830016      A1        A1 (1)
  163   105           3.7193271335         101.2080366201      B1        B1 (2)
  164    58           3.7419716861         101.8242262213      A1        A1 (1)
  165   157           3.9047211637         106.2528646559      B2        B2 (3)
  166   106           3.9114472018         106.4358894567      B1        B1 (2)
  167   189           3.9740596755         108.1396614832      A2        A2 (4)
  168   107           4.0452542908         110.0769654581      B1        B1 (2)
  169    59           4.0808668053         111.0460312430      A1        A1 (1)
  170    60           4.1829361667         113.8234797689      A1        A1 (1)
  171   158           4.1878080051         113.9560492336      B2        B2 (3)
  172   190           4.2494364150         115.6330435230      A2        A2 (4)
  173    61           4.3412435242         118.1312419703      A1        A1 (1)
  174   108           4.3771316430         119.1078073302      B1        B1 (2)
  175   159           4.5249887750         123.1312044374      B2        B2 (3)
  176    62           4.6934359300         127.7148845548      A1        A1 (1)
  177   160           4.7080481731         128.1125039049      B2        B2 (3)
  178    63           4.7967014884         130.5248832562      A1        A1 (1)
  179   109           4.9162799302         133.7787780832      B1        B1 (2)
  180   161           4.9495706205         134.6846638202      B2        B2 (3)
  181   191           4.9651444817         135.1084501278      A2        A2 (4)
  182   162           5.1721276662         140.7407489199      B2        B2 (3)
  183   110           5.2877266615         143.8863575018      B1        B1 (2)
  184    64           5.3025383535         144.2894041302      A1        A1 (1)
  185   192           5.3532506099         145.6693547833      A2        A2 (4)
  186    65           5.7376287837         156.1288166403      A1        A1 (1)
  187   111           5.7835270970         157.3777732408      B1        B1 (2)
  188    66           5.9284350184         161.3209182475      A1        A1 (1)
  189   112           6.5568409221         178.4207122251      B1        B1 (2)
  190    67           7.3024349026         198.7093558887      A1        A1 (1)
  191   163           7.6791044522         208.9590554173      B2        B2 (3)
  192    68          15.6372758192         425.5119076465      A1        A1 (1)


  VSCF finished.

 @CHECKOUT-I, Total execution time (CPU/WALL):       35.26/       8.39 seconds.
--executable xvscf finished with status     0 in        8.40 seconds (walltime).
 --invoking executable--
/usr/local/cfour/bin/xvtran
 @GETMEM-I,  Allocated    9536 MB of main memory.
  Partial RHF integral transformation
  Frozen-core orbitals requested within analytic derivative calculation
  Transformation of IIII integrals :
  1 pass through the AO integral file was required.
     4026045 AO integrals were read.
     1717605 MO integrals were written to HF2.
  Transformation of IIJJ integrals :
  1 pass through the AO integral file was required.
     8403081 AO integrals were read.
     3276648 MO integrals were written to HF2.
  Transformation of IJIJ integrals :
  1 pass through the AO integral file was required.
    16177008 AO integrals were read.
     6351057 MO integrals were written to HF2.
  Transformation of IJKL integrals :
  1 pass through the AO integral file was required.
    12772262 AO integrals were read.
     4654188 MO integrals were written to HF2.
  Summary of active molecular orbitals: 
------------------------------------------------------------------------

  Index      Eigenvalue    Symmetry    Index      Eigenvalue    Symmetry
------------------------------------------------------------------------
     1      -104.8504324        1        97         1.1169788        2
     2       -11.3679790        1        98         1.2513118        2
     3       -10.5746745        1        99         1.4000707        2
     4        -8.0415155        1       100         1.5395749        2
     5        -8.0395702        1       101         1.6837001        2
     6        -1.1907504        1       102         1.7153232        2
     7        -0.8973755        1       103         1.8234463        2
     8        -0.6150878        1       104         1.9272427        2
     9        -0.4713996        1       105         2.0295262        2
    10        -8.0394778        2       106         2.6307353        2
    11        -0.6774800        2       107         2.6656885        2
    12        -0.4473462        2       108         2.9653003        2
    13      -104.8504326        3       109         3.0500318        2
    14       -10.5746822        3       110         3.1644412        2
    15        -8.0415140        3       111         3.1938671        2
    16        -8.0395697        3       112         3.4332651        2
    17        -1.0958915        3       113         3.5996262        2
    18        -0.5838018        3       114         3.7193271        2
    19        -0.4480811        3       115         3.9114472        2
    20        -8.0394782        4       116         4.0452543        2
    21        -0.4740295        4       117         4.3771316        2
    22         0.0292889        1       118         4.9162799        2
    23         0.0641604        1       119         5.2877267        2
    24         0.1129618        1       120         5.7835271        2
    25         0.1205195        1       121         6.5568409        2
    26         0.1336057        1       122         0.0668209        3
    27         0.1865405        1       123         0.1140301        3
    28         0.2309894        1       124         0.1610332        3
    29         0.2727747        1       125         0.2031703        3
    30         0.3276866        1       126         0.2662441        3
    31         0.3539933        1       127         0.3247975        3
    32         0.3871994        1       128         0.3733912        3
    33         0.4112330        1       129         0.4564424        3
    34         0.4639979        1       130         0.4905859        3
    35         0.5126740        1       131         0.5525632        3
    36         0.5544957        1       132         0.6962624        3
    37         0.6995517        1       133         0.7513949        3
    38         0.7210335        1       134         0.8247163        3
    39         0.7666177        1       135         0.8932242        3
    40         0.8477385        1       136         0.9485344        3
    41         0.8987893        1       137         1.0202856        3
    42         0.9363102        1       138         1.0871190        3
    43         0.9677212        1       139         1.1294187        3
    44         1.0418792        1       140         1.2600645        3
    45         1.0677331        1       141         1.3566508        3
    46         1.1110202        1       142         1.5052400        3
    47         1.1445394        1       143         1.5690561        3
    48         1.2282863        1       144         1.7333265        3
    49         1.3644221        1       145         1.7487748        3
    50         1.4570836        1       146         1.8376431        3
    51         1.5508631        1       147         1.9407101        3
    52         1.6181888        1       148         2.2086106        3
    53         1.7223303        1       149         2.5917413        3
    54         1.7571054        1       150         2.6539367        3
    55         1.9037793        1       151         2.7111041        3
    56         1.9270213        1       152         2.9222919        3
    57         2.1365501        1       153         3.0334916        3
    58         2.4538018        1       154         3.0508099        3
    59         2.5749455        1       155         3.1026208        3
    60         2.6435128        1       156         3.1773115        3
    61         2.7267182        1       157         3.3097204        3
    62         2.9276181        1       158         3.5890308        3
    63         3.0253814        1       159         3.9047212        3
    64         3.1012512        1       160         4.1878080        3
    65         3.1482665        1       161         4.5249888        3
    66         3.2025534        1       162         4.7080482        3
    67         3.2552213        1       163         4.9495706        3
    68         3.4055473        1       164         5.1721277        3
    69         3.6388588        1       165         7.6791045        3
    70         3.7419717        1       166         0.1328537        4
    71         4.0808668        1       167         0.2687916        4
    72         4.1829362        1       168         0.4342488        4
    73         4.3412435        1       169         0.4563918        4
    74         4.6934359        1       170         0.5044788        4
    75         4.7967015        1       171         0.8408674        4
    76         5.3025384        1       172         0.8985054        4
    77         5.7376288        1       173         0.9539756        4
    78         5.9284350        1       174         1.0055486        4
    79         7.3024349        1       175         1.0941224        4
    80        15.6372758        1       176         1.2000094        4
    81         0.0425563        2       177         1.2971541        4
    82         0.1329981        2       178         1.4972223        4
    83         0.1448344        2       179         1.7242830        4
    84         0.2366111        2       180         1.9325954        4
    85         0.3222074        2       181         2.0988734        4
    86         0.3600175        2       182         2.5931367        4
    87         0.4220568        2       183         2.7013019        4
    88         0.4353924        2       184         2.8788443        4
    89         0.5191618        2       185         3.0744211        4
    90         0.6982048        2       186         3.1874532        4
    91         0.7789459        2       187         3.2871732        4
    92         0.8376450        2       188         3.5977838        4
    93         0.8719830        2       189         3.9740597        4
    94         0.9130296        2       190         4.2494364        4
    95         1.0414700        2       191         4.9651445        4
    96         1.0879900        2       192         5.3532506        4
------------------------------------------------------------------------
  -104.85043238104393       -11.367978997355726       -10.574674537865445       -8.0415154824983279       -8.0395702138558889       -1.1907503924036593      -0.89737546922076095      -0.61508777259151926      -0.47139957677422334       -8.0394777614267454      -0.67747998431221246      -0.44734620647961515       -104.85043259849323       -10.574682221567606       -8.0415140426663090       -8.0395696707811410       -1.0958914878245838      -0.58380177425802393      -0.44808106181397594       -8.0394781928300638      -0.47402947787614802        2.9288889147785168E-002   6.4160430285013614E-002  0.11296175850212957       0.12051945028009878       0.13360565909154457       0.18654050090763091       0.23098939482835074       0.27277466539666623       0.32768661500660445       0.35399328142219294       0.38719940807671777       0.41123303366560565       0.46399790632113885       0.51267399886928777       0.55449568057988707       0.69955165031205579       0.72103351824375583       0.76661765125298520       0.84773845603075970       0.89878933750240986       0.93631016075723628       0.96772124551328054        1.0418791976277983        1.0677331442410001        1.1110202149045942        1.1445394476945463        1.2282862550417692        1.3644221056461627        1.4570836335656756        1.5508630563213728        1.6181887655830518        1.7223303452172347        1.7571053717975589        1.9037792804691533        1.9270213177006896        2.1365501028724467        2.4538018191884041        2.5749454968207659        2.6435127597520816        2.7267182178776772        2.9276181334541338        3.0253813639205762        3.1012512012653102        3.1482665420283573        3.2025534046765469        3.2552213294009089        3.4055473022079874        3.6388588388205378        3.7419716860588492        4.0808668052879131        4.1829361666668037        4.3412435242185285        4.6934359300078770        4.7967014883991927        5.3025383534967023        5.7376287837046753        5.9284350183939480        7.3024349026200817        15.637275819151048        4.2556317169700590E-002  0.13299807816355691       0.14483440786544532       0.23661108369267006       0.32220740137758414       0.36001754575303174       0.42205675768964962       0.43539240019603459       0.51916184669948007       0.69820477476423548       0.77894587424782902       0.83764500930860508       0.87198304066327903       0.91302956445661310        1.0414700454363610        1.0879899531640693        1.1169787675028284        1.2513117622051904        1.4000707013823523        1.5395749130797818        1.6837001295651044        1.7153231536022755        1.8234462789855004        1.9272426666766620        2.0295262146806570        2.6307352683817324        2.6656884626545350        2.9653002747417250        3.0500318096304198        3.1644411765062008        3.1938670559028859        3.4332651041709243        3.5996261631687587        3.7193271335143399        3.9114472017884196        4.0452542908239808        4.3771316430096032        4.9162799302296678        5.2877266615479561        5.7835270970001753        6.5568409221378676        6.6820931205843773E-002  0.11403009292870964       0.16103324304363809       0.20317027054071285       0.26624406864724282       0.32479752601589779       0.37339123958922554       0.45644241914399886       0.49058588970938793       0.55256324941487756       0.69626243998381476       0.75139488347791028       0.82471631875366658       0.89322416804769944       0.94853440931517641        1.0202855924310430        1.0871190479051562        1.1294186731820328        1.2600644624841841        1.3566508290611263        1.5052399603947473        1.5690561052531482        1.7333265099221833        1.7487748310203546        1.8376430989605550        1.9407100593046489        2.2086106035843769        2.5917412548358802        2.6539366656200456        2.7111041092529025        2.9222918705063461        3.0334916486483512        3.0508099480546917        3.1026207661895420        3.1773114573389729        3.3097203656814966        3.5890307964572608        3.9047211637141701        4.1878080051470938        4.5249887750066948        4.7080481731375530        4.9495706205158729        5.1721276662433517        7.6791044521926421       0.13285365877148791       0.26879160261408702       0.43424876268031742       0.45639178263167396       0.50447880935392442       0.84086740750397859       0.89850543659808846       0.95397559092031536        1.0055486409547487        1.0941223921298835        1.2000093575510526        1.2971540586334585        1.4972223266222990        1.7242830343037971        1.9325953742547506        2.0988734466399719        2.5931366958343438        2.7013018914972835        2.8788443218158637        3.0744211069961764        3.1874531997035112        3.2871732426068276        3.5977837549400418        3.9740596754518505        4.2494364150183319        4.9651444816956776        5.3532506099391064     
 @CHECKOUT-I, Total execution time (CPU/WALL):       13.12/       3.68 seconds.
--executable xvtran finished with status     0 in        3.69 seconds (walltime).
 --invoking executable--
/usr/local/cfour/bin/xintprc
 @GETMEM-I,  Allocated    9536 MB of main memory.
  @GMOIAA-I, Processing MO integrals for spin case AA.
  @GMOIAA-I, Generation of integral list completed.
                      TYPE                NUMBER
                      ----               --------
                      PPPP                     0
                      PPPH              13280521
                      PPHH               1633180
                      PHPH                863795
                      PHHH                214543
                      HHHH                  7459

                     TOTAL              15999498

  @FORMT2-I, Second-order MP correlation energies:
            ------------------------------------------------
            E(SCF)                  =   -958.079110141054 a.u.
            E2(AA)                  =     -0.068541603381 a.u.
            E2(AB)                  =     -0.428804039577 a.u.
            E2(TOT)                 =     -0.565887246338 a.u.
            Total MP2 energy        =   -958.644997387393 a.u.
            ------------------------------------------------
   Largest T2 amplitudes for spin case AB:
       _       _                 _       _                 _       _
   i   j   a   b             i   j   a   b             i   j   a   b
-----------------------------------------------------------------------------
[ 18  18 125 125]-0.02244 [  8   8  27  27]-0.01982 [ 18   8 125  27]-0.01604
[  8  18  27 125]-0.01604 [ 18  18 126 125] 0.01512 [ 18  18 125 126] 0.01512
[ 18  18 126 126]-0.01255 [ 18   8 126  27] 0.01209 [  8  18  27 126] 0.01209
[ 19  19  27  27]-0.01169 [  9   9 125 125]-0.01141 [ 21  21 169 169]-0.01121
[ 18  18  27  27]-0.01080 [  8   8  29  27] 0.01053 [  8   8  27  29] 0.01053
-----------------------------------------------------------------------------
   Norm of T2AB vector (  3262769 symmetry allowed elements):  0.3820484794.
-----------------------------------------------------------------------------
 @CHECKOUT-I, Total execution time (CPU/WALL):        4.93/       1.57 seconds.
--executable xintprc finished with status     0 in        1.59 seconds (walltime).
  calling xecc 
 --invoking executable--
/usr/local/cfour/bin/xecc
 @GETMEM-I,  Allocated    9536 MB of main memory.
 CCSD(T) energy will be calculated.
 AO based algorithm is used. 
   Frozen core orbitals in analytic derivative calculation
 Largest T2 amplitudes for spin case AB:
        _       _                 _       _                 _       _
    i   j   a   b             i   j   a   b             i   j   a   b
 -----------------------------------------------------------------------------
 [ 18  18 125 125]-0.02244 [  8   8  27  27]-0.01982 [ 18   8 125  27]-0.01604
 [  8  18  27 125]-0.01604 [ 18  18 126 125] 0.01512 [ 18  18 125 126] 0.01512
 [ 18  18 126 126]-0.01255 [ 18   8 126  27] 0.01209 [  8  18  27 126] 0.01209
 [ 19  19  27  27]-0.01169 [  9   9 125 125]-0.01141 [ 21  21 169 169]-0.01121
 [ 18  18  27  27]-0.01080 [  8   8  29  27] 0.01053 [  8   8  27  29] 0.01053
 -----------------------------------------------------------------------------
 Norm of T2AB vector (  3262769 symmetry allowed elements):  0.3820484794.
 -----------------------------------------------------------------------------
 The total correlation energy is -0.565887246338 a.u.
 Resorts of amplitudes and integrals (CPU/WALL):       0.93/       0.13 seconds.
 Starting iterative solution of the CC equations.
 The DIIS procedure is used to accelerate convergence.
 5 expansion vectors are used in the DIIS extrapolation.
 Convergence criterium is 10**(-9).
 Maximum number of iterations is 100.
 >>>>>>>>>>>>>>>>>>>>>>>>>>>>>>>>>>>>>>>>>>>>>>>>>>>>>>>>>>>>>>>>>>>>>>>>>>>>>>>
 Iteration Nr.   1 started:
 Generation of Intermediates required (CPU/WALL):      6.33/       0.97 seconds.
 Transformation of t(ab,ij) amplitudes required    0.9 seconds.
 Contraction of t(mu nu,ij) with AO integrals required    6.6 seconds.
 Backtransformation of t(mu nu,ij) increments required    0.5 seconds.
 Construction of Hbar required (CPU/WALL):            13.01/       6.66 seconds.
   Frozen core orbitals in analytic derivative calculation
 Amplitude changes are:
 -------------------------------------------------------------------
              Spin      RMS          Max.      Max. change for
  Amplitude   Case     Change       Change       i    j    a    b
 -------------------------------------------------------------------
     T1        AA    0.0000328731 0.0090095506   18       125
     T2        AB    0.0000000164-0.0016622486    8   18  125   27
 -------------------------------------------------------------------
 The total correlation energy is -0.588531125252 a.u.
 Convergence information after     1 iterations: 
 Largest element of residual vector :  0.90095506E-02.
 Largest element of DIIS residual   :  0.90095506E-02.
 Iteration Nr.   1 required (CPU/WALL):               21.67/       7.93 seconds.
 >>>>>>>>>>>>>>>>>>>>>>>>>>>>>>>>>>>>>>>>>>>>>>>>>>>>>>>>>>>>>>>>>>>>>>>>>>>>>>>
 Iteration Nr.   2 started:
 Generation of Intermediates required (CPU/WALL):      6.17/       0.90 seconds.
 Transformation of t(ab,ij) amplitudes required    0.8 seconds.
 Contraction of t(mu nu,ij) with AO integrals required    6.6 seconds.
 Backtransformation of t(mu nu,ij) increments required    0.6 seconds.
 Construction of Hbar required (CPU/WALL):            12.76/       6.61 seconds.
   Frozen core orbitals in analytic derivative calculation
 Amplitude changes are:
 -------------------------------------------------------------------
              Spin      RMS          Max.      Max. change for
  Amplitude   Case     Change       Change       i    j    a    b
 -------------------------------------------------------------------
     T1        AA    0.0000053273 0.0013416477   18       126
     T2        AB    0.0000000059-0.0020866907   18   18  125  125
 -------------------------------------------------------------------
 The total correlation energy is -0.601025021590 a.u.
 Convergence information after     2 iterations: 
 Largest element of residual vector : -0.20866907E-02.
 Largest element of DIIS residual   : -0.22176743E-02.
 Iteration Nr.   2 required (CPU/WALL):               22.20/       7.93 seconds.
 >>>>>>>>>>>>>>>>>>>>>>>>>>>>>>>>>>>>>>>>>>>>>>>>>>>>>>>>>>>>>>>>>>>>>>>>>>>>>>>
 Iteration Nr.   3 started:
 Generation of Intermediates required (CPU/WALL):      6.30/       0.92 seconds.
 Transformation of t(ab,ij) amplitudes required    0.8 seconds.
 Contraction of t(mu nu,ij) with AO integrals required    6.6 seconds.
 Backtransformation of t(mu nu,ij) increments required    0.5 seconds.
 Construction of Hbar required (CPU/WALL):            12.79/       6.61 seconds.
   Frozen core orbitals in analytic derivative calculation
 Amplitude changes are:
 -------------------------------------------------------------------
              Spin      RMS          Max.      Max. change for
  Amplitude   Case     Change       Change       i    j    a    b
 -------------------------------------------------------------------
     T1        AA    0.0000051512 0.0020020945   18       125
     T2        AB    0.0000000016-0.0003527927    8   18  125   27
 -------------------------------------------------------------------
 The total correlation energy is -0.602416963744 a.u.
 Convergence information after     3 iterations: 
 Largest element of residual vector :  0.20020945E-02.
 Largest element of DIIS residual   :  0.11619139E-02.
 Iteration Nr.   3 required (CPU/WALL):               22.71/       8.00 seconds.
 >>>>>>>>>>>>>>>>>>>>>>>>>>>>>>>>>>>>>>>>>>>>>>>>>>>>>>>>>>>>>>>>>>>>>>>>>>>>>>>
 Iteration Nr.   4 started:
 Generation of Intermediates required (CPU/WALL):      6.23/       0.91 seconds.
 Transformation of t(ab,ij) amplitudes required    0.8 seconds.
 Contraction of t(mu nu,ij) with AO integrals required    6.7 seconds.
 Backtransformation of t(mu nu,ij) increments required    0.6 seconds.
 Construction of Hbar required (CPU/WALL):            12.89/       6.70 seconds.
   Frozen core orbitals in analytic derivative calculation
 Amplitude changes are:
 -------------------------------------------------------------------
              Spin      RMS          Max.      Max. change for
  Amplitude   Case     Change       Change       i    j    a    b
 -------------------------------------------------------------------
     T1        AA    0.0000007045 0.0002145311   19       125
     T2        AB    0.0000000004-0.0001655499   18   18  125  125
 -------------------------------------------------------------------
 The total correlation energy is -0.603601102802 a.u.
 Convergence information after     4 iterations: 
 Largest element of residual vector :  0.21453108E-03.
 Largest element of DIIS residual   :  0.15156171E-03.
 Iteration Nr.   4 required (CPU/WALL):               23.11/       8.12 seconds.
 >>>>>>>>>>>>>>>>>>>>>>>>>>>>>>>>>>>>>>>>>>>>>>>>>>>>>>>>>>>>>>>>>>>>>>>>>>>>>>>
 Iteration Nr.   5 started:
 Generation of Intermediates required (CPU/WALL):      6.24/       0.91 seconds.
 Transformation of t(ab,ij) amplitudes required    0.8 seconds.
 Contraction of t(mu nu,ij) with AO integrals required    6.6 seconds.
 Backtransformation of t(mu nu,ij) increments required    0.5 seconds.
 Construction of Hbar required (CPU/WALL):            12.71/       6.60 seconds.
   Frozen core orbitals in analytic derivative calculation
 Amplitude changes are:
 -------------------------------------------------------------------
              Spin      RMS          Max.      Max. change for
  Amplitude   Case     Change       Change       i    j    a    b
 -------------------------------------------------------------------
     T1        AA    0.0000004694 0.0002463269   19       125
     T2        AB    0.0000000001-0.0000384636   18   18  125  125
 -------------------------------------------------------------------
 The total correlation energy is -0.603687709251 a.u.
 Convergence information after     5 iterations: 
 Largest element of residual vector :  0.24632686E-03.
 Largest element of DIIS residual   :  0.15478291E-03.
 Iteration Nr.   5 required (CPU/WALL):               23.53/       8.10 seconds.
 Largest T1 amplitudes for spin case AA:
    i       a                 i       a                 i       a    
 -----------------------------------------------------------------------------
 [ 18     125    ] 0.01055 [ 19     125    ] 0.00991 [  8      27    ] 0.00880
[...]
         2                D              0.00046150
         3                D              0.00046150
         2                D              0.00086023
         3                D              0.00086023
         2                D              0.00029814
         3                D              0.00029814
         2                D              0.00146044
         3                D              0.00146044
         4                S              2.00003524
         5                S              2.00003524
         4                S              1.99694804
         5                S              1.99694804
         4                S             -0.00096747
         5                S             -0.00096747
         4                S              1.90823426
         5                S              1.90823426
         4                S              0.04655620
         5                S              0.04655620
         4                S              0.00994665
         5                S              0.00994665
         4                P              1.99889136
         5                P              1.99889136
         4                P              0.00115144
         5                P              0.00115144
         4                P              1.93739572
         5                P              1.93739572
         4                P              0.04807408
         5                P              0.04807408
         4                P              0.01494825
         5                P              0.01494825
         4                P              1.99371261
         5                P              1.99371261
         4                P              0.00271660
         5                P              0.00271660
         4                P              1.50039828
         5                P              1.50039828
         4                P             -0.05336275
         5                P             -0.05336275
         4                P              0.00470256
         5                P              0.00470256
         4                P              1.99672947
         5                P              1.99672947
         4                P              0.00120109
         5                P              0.00120109
         4                P              1.74951893
         5                P              1.74951893
         4                P             -0.00243572
         5                P             -0.00243572
         4                P              0.00932307
         5                P              0.00932307
         4                D              0.00172410
         5                D              0.00172410
         4                D              0.00408361
         5                D              0.00408361
         4                D              0.00083580
         5                D              0.00083580
         4                D              0.00093181
         5                D              0.00093181
         4                D              0.00465693
         5                D              0.00465693
         4                D             -0.00214192
         5                D             -0.00214192
         4                D              0.00060224
         5                D              0.00060224
         4                D              0.00320337
         5                D              0.00320337
         4                D             -0.00151320
         5                D             -0.00151320
         4                D              0.00264239
         5                D              0.00264239
         4                D              0.00833489
         5                D              0.00833489
         4                D              0.00243522
         5                D              0.00243522
         4                D              0.00672243
         5                D              0.00672243
         4                D              0.01633419
         5                D              0.01633419
         4                D              0.00156396
         5                D              0.00156396
         4                D              0.00051426
         5                D              0.00051426
         4                D              0.00279459
         5                D              0.00279459
         4                D             -0.00002699
         5                D             -0.00002699
         4                F              0.00013681
         5                F              0.00013681
         4                F              0.00005332
         5                F              0.00005332
         4                F              0.00061365
         5                F              0.00061365
         4                F              0.00026831
         5                F              0.00026831
         4                F              0.00027837
         5                F              0.00027837
         4                F              0.00005220
         5                F              0.00005220
         4                F              0.00021989
         5                F              0.00021989
         4                F              0.00014167
         5                F              0.00014167
         4                F              0.00054593
         5                F              0.00054593
         4                F              0.00023277
         5                F              0.00023277
         4                F              0.00003541
         5                F              0.00003541
         4                F              0.00002620
         5                F              0.00002620
         4                F              0.00028283
         5                F              0.00028283
         4                F              0.00043651
         5                F              0.00043651
         4                F              0.00161322
         5                F              0.00161322
         4                F              0.00045424
         5                F              0.00045424
         4                F              0.00060790
         5                F              0.00060790
         4                F              0.00058036
         5                F              0.00058036
         4                F              0.00020721
         5                F              0.00020721
         4                F              0.00010241
         5                F              0.00010241
 -------------------------------------------------------
  Population analysis by atoms (atomic charges).
 -------------------------------------------------------
     Z-matrix
      Center          Function          Population
 -------------------------------------------------------
         1                               6.16670428
         2                               0.69234303
         3                               0.69234303
         4                              17.22430483
         5                              17.22430483
 -------------------------------------------------------

  Mulliken population analysis of CCSD(T) density.
   Total density is analyzed.

  Population analysis by orbitals.
 -------------------------------------------------------
     Z-matrix
      Center          Function          Population
 -------------------------------------------------------
         1                S              2.00010570
         1                S             -0.00601582
         1                S              1.50958296
         1                S             -0.32299503
         1                S             -0.00070149
         1                P             -0.03553260
         1                P              1.32526015
         1                P             -0.03041534
         1                P              0.00475934
         1                P             -0.00941520
         1                P              0.84708589
         1                P             -0.10366460
         1                P              0.00526590
         1                P             -0.01019962
         1                P              1.05132374
         1                P             -0.10877317
         1                P              0.00508992
         1                D              0.00431635
         1                D              0.02021099
         1                D             -0.00089507
         1                D              0.00366027
         1                D              0.02832143
         1                D             -0.05356689
         1                D              0.00844909
         1                D              0.04124349
         1                D              0.00542699
         1                D              0.00523266
         1                D              0.03632717
         1                D             -0.00589016
         1                D              0.00728107
         1                D              0.04234742
         1                D             -0.00098288
         1                D              0.00224298
         1                D              0.01549049
         1                D             -0.02513264
         1                F              0.00051985
         1                F              0.00182568
         1                F              0.00122049
         1                F              0.00139929
         1                F              0.00138220
         1                F              0.00164041
         1                F              0.00095303
         1                F              0.00384596
         1                F              0.00162881
         1                F              0.00084587
         1                F              0.00061463
         1                F              0.00070506
         1                F              0.00079237
         1                F              0.00249166
         1                F              0.00199121
         1                F             -0.00013673
         1                F              0.00175391
         1                F              0.00728904
         1                F              0.00053515
         1                F              0.00172523
         2                S             -0.30346862
         3                S             -0.30346862
         2                S              1.35550122
         3                S              1.35550122
         2                S             -0.41979266
         3                S             -0.41979266
         2                S             -0.00138287
         3                S             -0.00138287
         2                P              0.00603038
         3                P              0.00603038
         2                P              0.00388569
         3                P              0.00388569
         2                P              0.01007350
         3                P              0.01007350
         2                P              0.00152559
         3                P              0.00152559
         2                P              0.01087476
         3                P              0.01087476
         2                P              0.00838169
         3                P              0.00838169
         2                P              0.00370886
         3                P              0.00370886
         2                P              0.00999410
         3                P              0.00999410
         2                P             -0.01246749
         3                P             -0.01246749
         2                D              0.00060142
         3                D              0.00060142
         2                D              0.00081193
         3                D              0.00081193
         2                D              0.00070035
         3                D              0.00070035
         2                D              0.00153709
         3                D              0.00153709
         2                D              0.00079252
         3                D              0.00079252
         2                D              0.00054404
         3                D              0.00054404
         2                D              0.00020450
         3                D              0.00020450
         2                D              0.00065032
         3                D              0.00065032
         2                D              0.00052699
         3                D              0.00052699
         2                D              0.00059645
         3                D              0.00059645
         2                D              0.00040236
         3                D              0.00040236
         2                D              0.00117734
         3                D              0.00117734
         4                S              2.00003499
         5                S              2.00003499
         4                S              1.99683555
         5                S              1.99683555
         4                S              0.00514252
         5                S              0.00514252
         4                S              1.90627411
         5                S              1.90627411
         4                S              0.01989857
         5                S              0.01989857
         4                S              0.00935863
         5                S              0.00935863
         4                P              1.99843525
         5                P              1.99843525
         4                P              0.01140914
         5                P              0.01140914
         4                P              1.87204080
         5                P              1.87204080
         4                P              0.04778968
         5                P              0.04778968
         4                P              0.01694658
         5                P              0.01694658
         4                P              1.99348135
         5                P              1.99348135
         4                P              0.01154704
         5                P              0.01154704
         4                P              1.45708882
         5                P              1.45708882
         4                P             -0.05507376
         5                P             -0.05507376
         4                P              0.00612595
         5                P              0.00612595
         4                P              1.99632703
         5                P              1.99632703
         4                P              0.01100177
         5                P              0.01100177
         4                P              1.68789534
         5                P              1.68789534
         4                P             -0.00298783
         5                P             -0.00298783
         4                P              0.01098259
         5                P              0.01098259
         4                D              0.00707258
         5                D              0.00707258
         4                D              0.01157419
         5                D              0.01157419
         4                D              0.00136224
         5                D              0.00136224
         4                D              0.00913514
         5                D              0.00913514
         4                D              0.01736549
         5                D              0.01736549
         4                D             -0.00048278
         5                D             -0.00048278
         4                D              0.00912265
         5                D              0.00912265
         4                D              0.01615192
         5                D              0.01615192
         4                D              0.00059190
         5                D              0.00059190
         4                D              0.00753523
         5                D              0.00753523
         4                D              0.01512049
         5                D              0.01512049
         4                D              0.00275048
         5                D              0.00275048
         4                D              0.01349429
         5                D              0.01349429
         4                D              0.02440750
         5                D              0.02440750
         4                D              0.00212317
         5                D              0.00212317
         4                D              0.00601937
         5                D              0.00601937
         4                D              0.01134337
         5                D              0.01134337
         4                D              0.00089562
         5                D              0.00089562
         4                F              0.00070345
         5                F              0.00070345
         4                F              0.00019029
         5                F              0.00019029
         4                F              0.00169110
         5                F              0.00169110
         4                F              0.00044874
         5                F              0.00044874
         4                F              0.00136901
         5                F              0.00136901
         4                F              0.00035078
         5                F              0.00035078
         4                F              0.00137381
         5                F              0.00137381
         4                F              0.00042506
         5                F              0.00042506
         4                F              0.00198700
         5                F              0.00198700
         4                F              0.00054466
         5                F              0.00054466
         4                F              0.00113650
         5                F              0.00113650
         4                F              0.00038114
         5                F              0.00038114
         4                F              0.00087787
         5                F              0.00087787
         4                F              0.00046831
         5                F              0.00046831
         4                F              0.00264498
         5                F              0.00264498
         4                F              0.00043474
         5                F              0.00043474
         4                F              0.00181598
         5                F              0.00181598
         4                F              0.00069319
         5                F              0.00069319
         4                F              0.00075600
         5                F              0.00075600
         4                F              0.00022767
         5                F              0.00022767
 -------------------------------------------------------
  Population analysis by atoms (atomic charges).
 -------------------------------------------------------
     Z-matrix
      Center          Function          Population
 -------------------------------------------------------
         1                               6.28786661
         2                               0.68140946
         3                               0.68140946
         4                              17.17465723
         5                              17.17465723
 -------------------------------------------------------
 @CHECKOUT-I, Total execution time (CPU/WALL):        2.00/       0.28 seconds.
--executable xprops finished with status     0 in        0.36 seconds (walltime).
  The final electronic energy is      -958.709885493991919 a.u. 
  This computation required                          771.35 seconds (walltime).

